
                                 *****************
                                 * O   R   C   A *
                                 *****************

                                            #,                                       
                                            ###                                      
                                            ####                                     
                                            #####                                    
                                            ######                                   
                                           ########,                                 
                                     ,,################,,,,,                         
                               ,,#################################,,                 
                          ,,##########################################,,             
                       ,#########################################, ''#####,          
                    ,#############################################,,   '####,        
                  ,##################################################,,,,####,       
                ,###########''''           ''''###############################       
              ,#####''   ,,,,##########,,,,          '''####'''          '####       
            ,##' ,,,,###########################,,,                        '##       
           ' ,,###''''                  '''############,,,                           
         ,,##''                                '''############,,,,        ,,,,,,###''
      ,#''                                            '''#######################'''  
     '                                                          ''''####''''         
             ,#######,   #######,   ,#######,      ##                                
            ,#'     '#,  ##    ##  ,#'     '#,    #''#        ,####,    ,#,          
            ##       ##  ##   ,#'  ##            #'  '#       #'       ,# #          
            ##       ##  #######   ##           ,######,      #####,      #          
            '#,     ,#'  ##    ##  '#,     ,#' ,#      #,     #,   #      #          
             '#######'   ##     ##  '#######'  #'      '#     '####' #    #          



                #########################################################
                #                        -***-                          #
                #          Department of theory and spectroscopy        #
                #                                                       #
                #                      Frank Neese                      #
                #                                                       #
                #     Directorship, Architecture, Infrastructure        #
                #                    SHARK, DRIVERS                     #
                #        Core code/Algorithms in most modules           #
                #                                                       #
                #        Max Planck Institute fuer Kohlenforschung      #
                #                Kaiser Wilhelm Platz 1                 #
                #                 D-45470 Muelheim/Ruhr                 #
                #                      Germany                          #
                #                                                       #
                #                  All rights reserved                  #
                #                        -***-                          #
                #########################################################


                         Program Version 6.1.1  -  RELEASE   -
                                (GIT: $487d211c$)
                          ($2025-11-21 10:33:24 +0100$)


 With contributions from (in alphabetic order):
[Max-Planck-Institut fuer Kohlenforschung]                               
  Daniel Aravena         : Magnetic Suceptibility                        
  Michael Atanasov       : Ab Initio Ligand Field Theory (pilot matlab implementation)
  Alexander A. Auer      : GIAO ZORA, VPT2 properties, NMR spectrum      
  Ute Becker             : All parallelization in ORCA, NUMFREQ, NUMCALC 
  Giovanni Bistoni       : ED, misc. LED, open-shell LED, HFLD           
  Dmytro Bykov           : pre 5.0 version of the SCF Hessian            
  Marcos Casanova-Páez   : Triplet and SCS-CIS(D). UHF-(DLPNO)-IP/EA/STEOM-CCSD. UHF-CVS-IP/STEOM-CCSD   
  Vijay G. Chilkuri      : MRCI spin determinant printing, contributions to CSF-ICE 
  Pauline Colinet        : FMM embedding                                 
  Dipayan Datta          : RHF DLPNO-CCSD density                        
  Achintya Kumar Dutta   : EOM-CC, STEOM-CC                              
  Nicolas Foglia         : Exact transition moments, OPA infrastructure, MCD improvements    
  Dmitry Ganyushin       : Spin-Orbit,Spin-Spin,Magnetic field MRCI      
  Miquel Garcia-Rates    : C-PCM and meta-GGA Hessian, CCSD/C-PCM, Gaussian charge scheme 
  Tiago L. C. Gouveia    : GS-ROHF, GS-ROCIS                             
  Yang Guo               : DLPNO-NEVPT2, F12-NEVPT2, CIM, IAO-localization        
  Andreas Hansen         : Spin unrestricted coupled pair/coupled cluster methods 
  Ingolf Harden          : AUTO-CI MPn and infrastructure                
  Benjamin Helmich-Paris : MC-RPA, TRAH-(SCF,CASSCF), AVAS, COSX integrals, SCF dyn. polar., MC-PDFT, srDFT 
  Lee Huntington         : MR-EOM, pCC                                   
  Robert Izsak           : Overlap fitted RIJCOSX, COSX-SCS-MP3, EOM     
  Riya Kayal             : Wick's Theorem for AUTO-CI, AUTO-CI UHF-CCSDT 
  Emily Kempfer          : AUTO-CI RHF CISDT and CCSDT, approximate NEVPT4
  Christian Kollmar      : KDIIS, OOCD, Brueckner-CCSD(T), CCSD density, CASPT2, CASPT2-K, improved NEVPT2 
  Axel Koslowski         : Symmetry handling                             
  Simone Kossmann        : meta-GGA functionals, TD-DFT gradient, OOMP2, (MP2 Hessian; deprecated post 5.0) 
  Lucas Lang             : DCDCAS, Hyperfine gauge corrections, ICE-SOC+SSC
  Marvin Lechner         : AUTO-CI (C++ implementation), FIC-MRCC        
  Spencer Leger          : CASSCF response                               
  Dagmar Lenk            : GEPOL surface, SMD, ORCA-2-JSON               
  Dimitrios Liakos       : Extrapolation schemes; Compound Job, Property file
  Dimitrios Manganas     : Further ROCIS development; embedding schemes. LFT, Crystal Embedding 
  Dimitrios Pantazis     : SARC Basis sets                               
  Anastasios Papadopoulos: AUTO-CI, single reference methods and gradients 
  Taras Petrenko         : pre 6.0 DFT Hessian and TD-DFT gradient,  ECA, NRVS 
  Petra Pikulova         : Analytic Raman intensities                    
  Peter Pinski           : DLPNO-MP2, DLPNO-MP2 Gradient                 
  Shashank Vittal Rao    : ES-AILFT, MagRelax                            
  Christoph Reimann      : Effective Core Potentials                     
  Marius Retegan         : Local ZFS, SOC                                
  Christoph Riplinger    : Optimizer, TS searches, QM/MM, DLPNO-CCSD(T), (RO)-DLPNO pert. Triples 
  Michael Roemelt        : Original ROCIS implementation, recursive CI coupling coefficients
  Masaaki Saitow         : Open-shell DLPNO-CCSD energy and density      
  Barbara Sandhoefer     : DKH picture change effects                    
  Yorick L. A. Schmerwitz: GMF and freeze-and-release deltaSCF, NEB S-IDPP initial path                    
  Kantharuban Sivalingam : CASSCF convergence/infrastructure, NEVPT2, NEVPT3, NEVPT4(SD), FIC-MRCI and CEPA variants
  Bernardo de Souza      : ESD, SOC TD-DFT                               
  Georgi L. Stoychev     : AutoAux, RI-MP2 NMR, DLPNO-MP2 response, X2C  
  Van Anh Tran           : RI-MP2 g-tensors                              
  Willem Van den Heuvel  : Paramagnetic NMR                              
  Zikuan Wang            : NOTCH, Electric field optimization            
  Frank Wennmohs         : Technical directorship and infrastructure     
  Hang Xu                : AUTO-CI-Response properties                   
                                                                         
[FACCTs GmbH]                                                            
  Markus Bursch, Nicolas Foglia, Miquel Garcia-Rates, Ingolf Harden, Hagen Neugebauer, Anastasios Papadopoulos, 
  Christoph Riplinger, Bernardo de Souza, Georgi L. Stoychev                                                    
                                                                 
  APM, various basis sets, CI-OPT, improved COSX, DLPNO-Multilevel,           
  DOCKER, DRACO, updates on ESD, Fragmentator, GOAT, IRC, LR-CPCM, L-BFGS, MBIS, meta-GGA TD-DFT gradient, ML-optimized integration grids, 
  MM, NACMEs, nearIR, NEB, NEB-TS, NL-DFT gradient (VV10), 2- and 3-layer-ONIOM, interface openCOSMO-RS, QMMM,   
  Crystal-QMMM, RESP, rigid body optimization, SF, symmetry and pop. for TD-DFT, various functionals, SOLVATOR                                   
                                                                         
[Other institutions]                                                     
  V. Asgeirsson          : NEB                                           
  Christoph Bannwarth    : sTDA-DFT, sTD-DFT, PBEh-3c, B97-3c, D3        
  Giovanni Bistoni       : ETS/NOCV, ADLD/ADEX, COVALED                  
  Martin Brehm           : Molecular dynamics                            
  Ronald Cardenas        : ETS/NOCV                                      
  Martina Colucci        : COVALED                                       
  Sebastian Ehlert       : rSCAN, r2SCAN, r2SCAN-3c, D4, dhf basis sets  
  Marvin Friede          : D4 for Fr, Ra, Ac-Lr                          
  Lars Goerigk           : TD-DFT with DH, B97 family of functionals     
  Stefan Grimme          : VdW corrections, initial TS optimization, DFT functionals, gCP, sTDA/sTD-DF 
  Waldemar Hujo          : DFT-NL                                        
  H. Jonsson             : NEB                                           
  Holger Kruse           : gCP                                           
  Marcel Mueller         : wB97X-3c, vDZP basis set                      
  Hagen Neugebauer       : wr2SCAN, Native XTB                           
  Gianluca Regni         : ADLD/ADEX                                     
  Tobias Risthaus        : pre 6.0 range-separated hybrid DFT and stability analysis
  Lukas Wittmann         : regularized MP2, r2SCAN double-hybrids, wr2SCAN        
                                                                         
We gratefully acknowledge several colleagues who have allowed us to      
interface, adapt or use parts of their codes:                            
  Ed Valeev, F. Pavosevic, A. Kumar             : LibInt (2-el integral package), F12 methods 
  Garnet Chan, S. Sharma, J. Yang, R. Olivares  : DMRG                   
  Ulf Ekstrom                                   : XCFun DFT Library      
  Mihaly Kallay                                 : mrcc  (arbitrary order and MRCC methods)
  Frank Weinhold                                : gennbo (NPA and NBO analysis)           
  Simon Mueller                                 : openCOSMO-RS                            
  Christopher J. Cramer and Donald G. Truhlar   : smd solvation model                     
  S Lehtola, MJT Oliveira, MAL Marques          : LibXC Library                           
  Liviu Ungur et al                             : ANISO software                          


 Your calculation uses the libint2 library for the computation of 2-el integrals
 For citations please refer to: http://libint.valeyev.net

 Your ORCA version has been built with support for libXC version: 7.0.0
 For citations please refer to: https://libxc.gitlab.io

 This ORCA versions uses:
   CBLAS   interface :  Fast vector & matrix operations
   LAPACKE interface :  Fast linear algebra routines
   SCALAPACK package :  Parallel linear algebra routines
   Shared memory     :  Shared parallel matrices
   BLAS/LAPACK       :  OpenBLAS 0.3.29  USE64BITINT DYNAMIC_ARCH NO_AFFINITY SkylakeX SINGLE_THREADED
        Core in use  :  SkylakeX
   Copyright (c) 2011-2014, The OpenBLAS Project


  ***********************************
  * Starting time: Sat May 23 01:27:26 2026
  * Host name:     n047.hpc
  * Process ID:    3192553
  * Working dir.:  /gpfs/home1/yeseo1ee/projects/v1-claisen-asr/runs/no2/orca
  ***********************************

NOTE: MaxCore=4000 MB was set to SCF,MP2,MDCI,CIPSI,MRCI,RASCI and CIS
      => If you want to overwrite this, your respective input block should be placed after the MaxCore statement


***************************************
The coordinates will be read from file: ../build/mol.xyz
***************************************


Your calculation utilizes the atom-pairwise dispersion correction
based on EEQ partial charges (D4)


================================================================================

cite the ECPs for C  [vDZP-ECP], N  [vDZP-ECP], O  [vDZP-ECP] as follows:
   B-Ne (ecp-2-mwb), Al-Ar (ecp-10-mwb), Ga-Kr (ecp-28-mwb), Y-Cd (ecp-28-mwb), In-Xe (ecp-46-mwb):
     A. Bergner, M. Dolg, W. Küchle, H. Stoll, and H. Preuß, Mol. Phys. 80, 1431 (1993)., T. Leininger, A. Berning, A. Nicklass, H. Stoll, H.-J. Werner, and H.-J.Flad, Chem. Phys. 217, 19 (1997).
   Na-Mg, K-Ca, Rb-Sr, Cs-Ba (CRENBL):
     L. Fernandez Pacios and P. A. Christiansen, J. Chem. Phys. 82, 2664 (1985)., M. M. Hurley, L. F. Pacios, P. A. Christiansen, R. B. Ross, and W. C. Ermler, J. Chem. Phys. 84, 6840 (1986)., L. A. LaJohn, P. A. Christiansen, R. B. Ross, T. Atashroo, and W. C. Ermler, J. Chem. Phys. 87, 2812 (1987)., R. B. Ross, J. M. Powers, T. Atashroo, W. C. Ermler, L. A. LaJohn, and P. A. Christiansen, J. Chem. Phys. 93, 6654 (1990). 
   Sc-Zn (ecp-10-mdf):
     M. Dolg, U. Wedig, H. Stoll, and H. Preuss, J. Chem. Phys. 86, 866 (1986). 
   Y-Cd (ecp-28-mwb), Hf-Hg (ecp-60-mwb):
     D. Andrae, U. Häußermann, M. Dolg, H. Stoll, and H. Preuß, Theor. Chim. Acta 77, 123 (1990). 
   La (ecp-46-mwb):
     M. Dolg, H. Stoll, and H. Preuss, J. Chem. Phys. 90, 1730 (1989)., M. Dolg, H. Stoll, and H. Preuss, Theor. Chim. Acta 85, 441 (1993).
   Ce-Lu (SBKJC-ecp):
     T. R. Cundari and W. J. Stevens, J. Chem. Phys. 98, 5555 (1993).
   Tl-Rn (ecp-78-mwb):
     W. Küchle, M. Dolg, H. Stoll, and H. Preuss, Mol. Phys. 74, 1245 (1991).

ECP parameters for C  [vDZP-ECP], N  [vDZP-ECP], O  [vDZP-ECP] have been obtained from:
MM, AH, SG, J. Chem. Phys. 158, 014103 (2023), 10.1063/5.0133026

----- Orbital basis set information -----
Your calculation utilizes the basis: vDZP
   Marcel Mueller, Andreas Hansen, Stefan Grimme 
   J. Chem. Phys. 158, 014103 (2023). DOI: 10.1063/5.0133026

----- AuxJ basis set information -----
Your calculation utilizes the auxiliary basis: def2/J
   H-Rn: F. Weigend, Phys. Chem. Chem. Phys. 8, 1057 (2006).
   Fr-Lr: K. Eichkorn, F. Weigend, O. Treutler, R. Ahlrichs; Theor. Chem. Acc. 97, 119 (1997).

================================================================================
                                        WARNINGS
                       Please study these warnings very carefully!
================================================================================

WARNING: Frozen-Core approximation turned on, but there are no core electrons.
  ===> : Turning off frozen-core approximation


WARNING: Geometry Optimization
  ===> : Switching off AutoStart
         For restart on a previous wavefunction, please use MOREAD

================================================================================
                                       INPUT FILE
================================================================================
NAME = reactant.inp
|  1> ! wB97X-3c Opt Freq TightSCF
|  2> %pal nprocs 8 end
|  3> %maxcore 4000
|  4> * xyzfile 0 1 ../build/mol.xyz
|  5> 
|  6>                          ****END OF INPUT****
================================================================================

                       *****************************
                       * Geometry Optimization Run *
                       *****************************

Geometry optimization settings:
Update method            Update   .... BFGS
Choice of coordinates    CoordSys .... (2022) Redundant Internals
Initial Hessian          InHess   .... Almloef's Model
Max. no of cycles        MaxIter  .... 50

Convergence Tolerances:
Energy Change            TolE     ....  5.0000e-06 Eh
Max. Gradient            TolMAXG  ....  3.0000e-04 Eh/bohr
RMS Gradient             TolRMSG  ....  1.0000e-04 Eh/bohr
Max. Displacement        TolMAXD  ....  4.0000e-03 bohr
RMS Displacement         TolRMSD  ....  2.0000e-03 bohr
Strict Convergence                .... False

------------------------------------------------------------------------------
                        ORCA OPTIMIZATION COORDINATE SETUP
------------------------------------------------------------------------------

The optimization will be done in redundant internal coordinates (2022)
Making redundant internal coordinates   ...  (2022 redundants) done
Evaluating the initial hessian          ...  (Almloef) done
Evaluating the coordinates              ...  done
Calculating the B-matrix                .... done
Calculating the G-matrix                .... done
The number of degrees of freedom        ....   59

    -----------------------------------------------------------------
                    Redundant Internal Coordinates


    -----------------------------------------------------------------
         Definition                    Initial Value    Approx d2E/dq
    -----------------------------------------------------------------
      1. B(C   1,C   0)                  1.3419         0.745480   
      2. B(N   2,C   1)                  1.4768         0.406875   
      3. B(O   3,N   2)                  1.2413         0.865393   
      4. B(O   4,N   2)                  1.2400         0.869611   
      5. B(O   5,C   1)                  1.3664         0.610324   
      6. B(C   6,O   5)                  1.4226         0.496389   
      7. B(C   7,C   6)                  1.5036         0.411657   
      8. B(C   8,C   7)                  1.3405         0.749329   
      9. B(H   9,C   0)                  1.0869         0.364180   
     10. B(H  10,C   0)                  1.0825         0.370103   
     11. B(H  11,C   6)                  1.0966         0.351465   
     12. B(H  12,C   6)                  1.0966         0.351467   
     13. B(H  13,C   7)                  1.0882         0.362494   
     14. B(H  14,C   8)                  1.0870         0.364069   
     15. B(H  15,C   8)                  1.0857         0.365802   
     16. A(H   9,C   0,H  10)          115.9303         0.292614   
     17. A(C   1,C   0,H   9)          121.8782         0.364854   
     18. A(C   1,C   0,H  10)          122.1915         0.365863   
     19. A(N   2,C   1,O   5)          109.2632         0.396450   
     20. A(C   0,C   1,O   5)          131.0170         0.444537   
     21. A(C   0,C   1,N   2)          119.7199         0.413360   
     22. A(C   1,N   2,O   4)          118.2651         0.419307   
     23. A(C   1,N   2,O   3)          117.6424         0.418943   
     24. A(O   3,N   2,O   4)          124.0926         0.477544   
     25. A(C   1,O   5,C   6)          116.7165         0.410604   
     26. A(C   7,C   6,H  11)          108.2980         0.328228   
     27. A(O   5,C   6,H  11)          109.9719         0.336527   
     28. A(H  11,C   6,H  12)          109.5043         0.288634   
     29. A(O   5,C   6,H  12)          109.9724         0.336527   
     30. A(C   7,C   6,H  12)          108.2982         0.328229   
     31. A(O   5,C   6,C   7)          110.7542         0.385620   
     32. A(C   8,C   7,H  13)          118.0474         0.364885   
     33. A(C   6,C   7,H  13)          115.2732         0.329907   
     34. A(C   6,C   7,C   8)          126.6795         0.417299   
     35. A(H  14,C   8,H  15)          117.0978         0.292062   
     36. A(C   7,C   8,H  15)          120.9216         0.365453   
     37. A(C   7,C   8,H  14)          121.9806         0.365156   
     38. D(N   2,C   1,C   0,H   9)      0.0001         0.039587   
     39. D(O   5,C   1,C   0,H   9)   -179.9997         0.039587   
     40. D(N   2,C   1,C   0,H  10)   -179.9989         0.039587   
     41. D(O   5,C   1,C   0,H  10)      0.0014         0.039587   
     42. D(O   3,N   2,C   1,O   5)    179.9961         0.013064   
     43. D(O   4,N   2,C   1,C   0)    179.9963         0.013064   
     44. D(O   3,N   2,C   1,C   0)     -0.0037         0.013064   
     45. D(O   4,N   2,C   1,O   5)     -0.0039         0.013064   
     46. D(C   6,O   5,C   1,N   2)   -179.9989         0.027268   
     47. D(C   6,O   5,C   1,C   0)      0.0009         0.027268   
     48. D(H  12,C   6,O   5,C   1)     60.3319         0.019471   
     49. D(H  11,C   6,O   5,C   1)    -60.3351         0.019471   
     50. D(C   7,C   6,O   5,C   1)    179.9986         0.019471   
     51. D(C   8,C   7,C   6,H  11)   -120.6669         0.012547   
     52. D(C   8,C   7,C   6,O   5)     -0.0014         0.012547   
     53. D(H  13,C   7,C   6,H  11)     59.3325         0.012547   
     54. D(H  13,C   7,C   6,O   5)    179.9980         0.012547   
     55. D(C   8,C   7,C   6,H  12)    120.6649         0.012547   
     56. D(H  15,C   8,C   7,H  13)      0.0001         0.040036   
     57. D(H  15,C   8,C   7,C   6)    179.9995         0.040036   
     58. D(H  14,C   8,C   7,H  13)    179.9995         0.040036   
     59. D(H  14,C   8,C   7,C   6)     -0.0011         0.040036   
    -----------------------------------------------------------------

Number of atoms                         .... 16
Number of degrees of freedom            .... 59


         *************************************************************
         *                GEOMETRY OPTIMIZATION CYCLE   1            *
         *************************************************************
---------------------------------
CARTESIAN COORDINATES (ANGSTROEM)
---------------------------------
  C     -2.047749   -1.122597    0.382031
  C     -1.334922    0.004902    0.528290
  N     -1.937907    1.169375    1.207423
  O     -3.102000    1.054643    1.622890
  O     -1.255062    2.197391    1.327880
  O     -0.061247    0.316750    0.144238
  C      0.670609   -0.700083   -0.529782
  C      2.047904   -0.215853   -0.889393
  C      2.563129    0.994995   -0.633663
  H     -3.066510   -1.209548    0.750798
  H     -1.645569   -1.999581   -0.108934
  H      0.772889   -1.579460    0.117352
  H      0.153192   -0.983865   -1.454061
  H      2.673260   -0.938492   -1.409867
  H      1.995219    1.765085   -0.117868
  H      3.574765    1.246337   -0.937332

----------------------------
CARTESIAN COORDINATES (A.U.)
----------------------------
  NO LB      ZA    FRAG     MASS         X           Y           Z
   0 C     4.0000*   0    12.011   -3.869685   -2.121401    0.721934
   1 C     4.0000*   0    12.011   -2.522637    0.009263    0.998323
   2 N     5.0000*   0    14.007   -3.662114    2.209798    2.281699
   3 O     6.0000*   0    15.999   -5.861930    1.992986    3.066818
   4 O     6.0000*   0    15.999   -2.371723    4.152467    2.509330
   5 O     6.0000*   0    15.999   -0.115740    0.598571    0.272570
   6 C     4.0000*   0    12.011    1.267267   -1.322965   -1.001143
   7 C     4.0000*   0    12.011    3.869978   -0.407903   -1.680709
   8 C     4.0000*   0    12.011    4.843612    1.880268   -1.197450
   9 H     1.0000    0     1.008   -5.794864   -2.285714    1.418803
  10 H     1.0000    0     1.008   -3.109675   -3.778660   -0.205855
  11 H     1.0000    0     1.008    1.460549   -2.984747    0.221763
  12 H     1.0000    0     1.008    0.289491   -1.859235   -2.747777
  13 H     1.0000    0     1.008    5.051729   -1.773493   -2.664263
  14 H     1.0000    0     1.008    3.770417    3.335527   -0.222738
  15 H     1.0000    0     1.008    6.755327    2.355236   -1.771301
* core charge reduced due to ECP

--------------------------------
INTERNAL COORDINATES (ANGSTROEM)
--------------------------------
 C      0   0   0     0.000000000000     0.00000000     0.00000000
 C      1   0   0     1.341926980879     0.00000000     0.00000000
 N      2   1   0     1.476756550567   119.71988288     0.00000000
 O      3   2   1     1.241325409617   117.64237610     0.00000000
 O      3   2   1     1.240001644809   118.26506631   179.99625146
 O      2   1   3     1.366379566384   131.01695331   180.00022609
 C      6   2   1     1.422626273842   116.71651389     0.00000000
 C      7   6   2     1.503575831558   110.75422960   179.99864012
 C      8   7   6     1.340525088400   126.67945541     0.00000000
 H      1   2   3     1.086933094450   121.87824989     0.00000000
 H      1   2   3     1.082541601917   122.19146527   180.00114131
 H      7   6   2     1.096607277235   109.97185395   299.66487110
 H      7   6   2     1.096605783887   109.97243610    60.33185650
 H      8   7   6     1.088195954658   115.27319193   179.99798160
 H      9   8   7     1.087016493999   121.98056492     0.00000000
 H      9   8   7     1.085723288422   120.92164415   179.99950554

---------------------------
INTERNAL COORDINATES (A.U.)
---------------------------
 C      0   0   0     0.000000000000     0.00000000     0.00000000
 C      1   0   0     2.535874485581     0.00000000     0.00000000
 N      2   1   0     2.790665447046   119.71988288     0.00000000
 O      3   2   1     2.345765067255   117.64237610     0.00000000
 O      3   2   1     2.343263514302   118.26506631   179.99625146
 O      2   1   3     2.582083175453   131.01695331   180.00022609
 C      6   2   1     2.688374048482   116.71651389     0.00000000
 C      7   6   2     2.841346543228   110.75422960   179.99864012
 C      8   7   6     2.533225292726   126.67945541     0.00000000
 H      1   2   3     2.054005874406   121.87824989     0.00000000
 H      1   2   3     2.045707156200   122.19146527   180.00114131
 H      7   6   2     2.072287430439   109.97185395   299.66487110
 H      7   6   2     2.072284608420   109.97243610    60.33185650
 H      8   7   6     2.056392334344   115.27319193   179.99798160
 H      9   8   7     2.054163476713   121.98056492     0.00000000
 H      9   8   7     2.051719672337   120.92164415   179.99950554

---------------------
BASIS SET INFORMATION
---------------------
There are 4 groups of distinct atoms

 Group   1 Type C   : 6s6p2d contracted to 2s2p1d pattern {42/42/2}
 Group   2 Type N   : 6s6p2d contracted to 2s2p1d pattern {42/42/2}
 Group   3 Type O   : 6s6p2d contracted to 2s2p1d pattern {42/42/2}
 Group   4 Type H   : 8s2p contracted to 2s1p pattern {53/2}

Atom   0C    basis set group =>   1
Atom   1C    basis set group =>   1
Atom   2N    basis set group =>   2
Atom   3O    basis set group =>   3
Atom   4O    basis set group =>   3
Atom   5O    basis set group =>   3
Atom   6C    basis set group =>   1
Atom   7C    basis set group =>   1
Atom   8C    basis set group =>   1
Atom   9H    basis set group =>   4
Atom  10H    basis set group =>   4
Atom  11H    basis set group =>   4
Atom  12H    basis set group =>   4
Atom  13H    basis set group =>   4
Atom  14H    basis set group =>   4
Atom  15H    basis set group =>   4
---------------------------------
AUXILIARY/J BASIS SET INFORMATION
---------------------------------
There are 4 groups of distinct atoms

 Group   1 Type C   : 12s5p4d2f1g contracted to 6s4p3d1f1g pattern {711111/2111/211/2/1}
 Group   2 Type N   : 12s5p4d2f1g contracted to 6s4p3d1f1g pattern {711111/2111/211/2/1}
 Group   3 Type O   : 12s5p4d2f1g contracted to 6s4p3d1f1g pattern {711111/2111/211/2/1}
 Group   4 Type H   : 5s2p1d contracted to 3s1p1d pattern {311/2/1}

Atom   0C    basis set group =>   1
Atom   1C    basis set group =>   1
Atom   2N    basis set group =>   2
Atom   3O    basis set group =>   3
Atom   4O    basis set group =>   3
Atom   5O    basis set group =>   3
Atom   6C    basis set group =>   1
Atom   7C    basis set group =>   1
Atom   8C    basis set group =>   1
Atom   9H    basis set group =>   4
Atom  10H    basis set group =>   4
Atom  11H    basis set group =>   4
Atom  12H    basis set group =>   4
Atom  13H    basis set group =>   4
Atom  14H    basis set group =>   4
Atom  15H    basis set group =>   4
-------------------------
ECP PARAMETER INFORMATION
-------------------------

 Group 1, Type C  ECP vDZP-ECP (replacing 2 core electrons, lmax=3)
 Group 2, Type N  ECP vDZP-ECP (replacing 2 core electrons, lmax=3)
 Group 3, Type O  ECP vDZP-ECP (replacing 2 core electrons, lmax=3)

Atom   0C    ECP group =>   1
Atom   1C    ECP group =>   1
Atom   2N    ECP group =>   2
Atom   3O    ECP group =>   3
Atom   4O    ECP group =>   3
Atom   5O    ECP group =>   3
Atom   6C    ECP group =>   1
Atom   7C    ECP group =>   1
Atom   8C    ECP group =>   1



           ************************************************************
           *        Program running with 8 parallel MPI-processes     *
           *              working on a common directory               *
           ************************************************************
------------------------------------------------------------------------------
                             ORCA STARTUP CALCULATIONS
                           -- RI-GTO INTEGRALS CHOSEN --
------------------------------------------------------------------------------
------------------------------------------------------------------------------
                   ___                                                        
                  /   \      - P O W E R E D   B Y -                         
                 /     \                                                     
                 |  |  |   _    _      __       _____    __    __             
                 |  |  |  | |  | |    /  \     |  _  \  |  |  /  |          
                  \  \/   | |  | |   /    \    | | | |  |  | /  /          
                 / \  \   | |__| |  /  /\  \   | |_| |  |  |/  /          
                |  |  |   |  __  | /  /__\  \  |    /   |      \           
                |  |  |   | |  | | |   __   |  |    \   |  |\   \          
                \     /   | |  | | |  |  |  |  | |\  \  |  | \   \       
                 \___/    |_|  |_| |__|  |__|  |_| \__\ |__|  \__/        
                                                                              
                      - O R C A' S   B I G   F R I E N D -                    
                                      &                                       
                       - I N T E G R A L  F E E D E R -                       
                                                                              
 v1 FN, 2020, v2 2021, v3 2022-2024                                           
------------------------------------------------------------------------------


----------------------
SHARK INTEGRAL PACKAGE
----------------------

Number of atoms                             ...     16
Number of basis functions                   ...    152
Number of shells                            ...     66
Maximum angular momentum                    ...      2
Integral batch strategy                     ... SHARK/LIBINT Hybrid
RI-J (if used) integral strategy            ... SPLIT-RIJ (Revised 2003 algorithm where possible)
Printlevel                                  ...      1
Contraction scheme used                     ... SEGMENTED contraction
Prescreening option                         ... SCHWARTZ
   Thresh                                   ... 2.500e-11
   Tcut                                     ... 2.500e-12
   Tpresel                                  ... 2.500e-12 
Coulomb Range Separation                    ... NOT USED
Exchange Range Separation                   ... Long Range
   Mu parameter                             ... 3.000e-01
   Scaling (regular/separated)              ... 1.670e-01 8.330e-01
Robust (split-)RI terms used:
  metric    (central integrals)             ... YES
  density   (r.h.s.  integrals)             ... YES
  potential (l.h.s.  integrals)             ... YES
Multipole approximations                    ... NOT USED
Finite Nucleus Model                        ... NOT USED
CABS basis                                  ... NOT available
Auxiliary Coulomb fitting basis             ... AVAILABLE
   # of basis functions in Aux-J            ...    518
   # of shells in Aux-J                     ...    170
   Maximum angular momentum in Aux-J        ...      4
Auxiliary J/K fitting basis                 ... NOT available
Auxiliary Correlation fitting basis         ... NOT available
Auxiliary 'external' fitting basis          ... NOT available

Checking pre-screening integrals            ... done (  0.0 sec) Dimension = 66
   => SHARK Basis and OBASIS are compatible. Storing Pre-screening
Shell pair information
Shell pair cut-off parameter TPreSel        ...   2.5e-12
Total number of shell pairs                 ...      2211
Shell pairs after pre-screening             ...      2205
Total number of primitive shell pairs       ...     19539
Primitive shell pairs kept                  ...     16277
          la=0 lb=0:    528 shell pairs
          la=1 lb=0:    798 shell pairs
          la=1 lb=1:    322 shell pairs
          la=2 lb=0:    288 shell pairs
          la=2 lb=1:    224 shell pairs
          la=2 lb=2:     45 shell pairs

Checking whether 4 symmetric matrices of dimension 152 fit in memory
:Max Core in MB      =   4000.00
 MB in use           =      7.97
 MB left             =   3992.03
 MB needed           =      0.35
 Data fit in memory  = YES
Calculating RI/J V-Matrix + Cholesky decomp.... done (  0.0 sec)
Calculating Nuclear repulsion               ... done (  0.0 sec) ENN=    236.026591256361 Eh

Diagonalization of the overlap matrix:
Smallest eigenvalue                        ... 1.253e-03
Time for diagonalization                   ...    0.002 sec
Threshold for overlap eigenvalues          ... 1.000e-07
Number of eigenvalues below threshold      ... 0
Time for construction of square roots      ...    0.001 sec
Total time needed                          ...    0.005 sec

-------------------
DFT GRID GENERATION
-------------------

General Integration Accuracy     IntAcc      ... 4.388
Radial Grid Type                 RadialGrid  ... OptM3 with GC (2021)
Angular Grid (max. ang.)         AngularGrid ... 4 (Lebedev-302)
Angular grid pruning method      GridPruning ... 4 (adaptive)
Weight generation scheme         WeightScheme... mBecke (2022)
Basis function cutoff            BFCut       ... 1.0000e-11
Integration weight cutoff        WCut        ... 1.0000e-14
Partially contracted basis set               ... off
Rotationally invariant grid construction     ... off
Angular grids for H and He will be reduced by one unit

Total number of grid points                  ...    77161
Total number of batches                      ...     1215
Average number of points per batch           ...       63
Average number of grid points per atom       ...     4823

--------------------
COSX GRID GENERATION
--------------------

GRIDX 1
-------
General Integration Accuracy     IntAcc      ... 3.816
Radial Grid Type                 RadialGrid  ... OptM3 with GC (2021)
Angular Grid (max. ang.)         AngularGrid ... 1 (Lebedev-50)
Angular grid pruning method      GridPruning ... 4 (adaptive)
Weight generation scheme         WeightScheme... mBecke (2022)
Basis function cutoff            BFCut       ... 1.0000e-11
Integration weight cutoff        WCut        ... 1.0000e-14
Partially contracted basis set               ... on
Rotationally invariant grid construction     ... off
Angular grids for H and He will be reduced by one unit

Total number of grid points                  ...     9842
Total number of batches                      ...       87
Average number of points per batch           ...      113
Average number of grid points per atom       ...      615
UseSFitting                                  ... on

GRIDX 2
-------
General Integration Accuracy     IntAcc      ... 4.020
Radial Grid Type                 RadialGrid  ... OptM3 with GC (2021)
Angular Grid (max. ang.)         AngularGrid ... 2 (Lebedev-110)
Angular grid pruning method      GridPruning ... 4 (adaptive)
Weight generation scheme         WeightScheme... mBecke (2022)
Basis function cutoff            BFCut       ... 1.0000e-11
Integration weight cutoff        WCut        ... 1.0000e-14
Partially contracted basis set               ... on
Rotationally invariant grid construction     ... off
Angular grids for H and He will be reduced by one unit

Total number of grid points                  ...    21779
Total number of batches                      ...      177
Average number of points per batch           ...      123
Average number of grid points per atom       ...     1361
UseSFitting                                  ... on

GRIDX 3
-------
General Integration Accuracy     IntAcc      ... 4.338
Radial Grid Type                 RadialGrid  ... OptM3 with GC (2021)
Angular Grid (max. ang.)         AngularGrid ... 3 (Lebedev-194)
Angular grid pruning method      GridPruning ... 4 (adaptive)
Weight generation scheme         WeightScheme... mBecke (2022)
Basis function cutoff            BFCut       ... 1.0000e-11
Integration weight cutoff        WCut        ... 1.0000e-14
Partially contracted basis set               ... on
Rotationally invariant grid construction     ... off
Angular grids for H and He will be reduced by one unit

Total number of grid points                  ...    47851
Total number of batches                      ...      381
Average number of points per batch           ...      125
Average number of grid points per atom       ...     2991
UseSFitting                                  ... on
Grids setup in   0.7 sec
Initializing property integral containers    ... done (  0.0 sec)

SHARK setup successfully completed in   0.9 seconds

Maximum memory used throughout the entire STARTUP-calculation: 22.6 MB


           ************************************************************
           *        Program running with 8 parallel MPI-processes     *
           *              working on a common directory               *
           ************************************************************
-------------------------------------------------------------------------------
                                 ORCA GUESS
                   Start orbitals & Density for SCF / CASSCF
-------------------------------------------------------------------------------

------------
SCF SETTINGS
------------
Hamiltonian:
 Density Functional     Method          .... DFT(GTOs)
 Exchange Functional    Exchange        .... WB97X-V
 Correlation Functional Correlation     .... WB97X-V
 Gradients option       PostSCFGGA      .... off
 Hybrid DFT is turned on
   Fraction HF Exchange ScalHFX         ....  0.167000
   Scaling of DF-GGA-X  ScalDFX         ....  0.000000
   Scaling of DF-GGA-C  ScalDFC         ....  1.000000
   Scaling of DF-LDA-C  ScalLDAC        ....  1.000000
   Perturbative correction              ....  0.000000
 Long-range corrected/Screened/Range-Separated Hybrid DFT is turned on
   Amount of maximum screened exact exchange              ....  0.833000
   Range separation parameter mu (erf(mu*r12)/r12)        ....  0.300000
   NL short-range parameter             ....  6.000000
   NL long-range parameter              ....  0.010000
 RI-approximation to the Coulomb term is turned on
   Number of AuxJ basis functions       .... 518
   RIJ-COSX (HFX calculated with COS-X)).... on


General Settings:
 Integral files         IntName         .... reactant
 Hartree-Fock type      HFTyp           .... RHF
 Total Charge           Charge          ....    0
 Multiplicity           Mult            ....    1
 Number of Electrons    NEL             ....   50
 Basis Dimension        Dim             ....  152
 Nuclear Repulsion      ENuc            ....    236.0265912564 Eh

Convergence Acceleration:
 AO-DIIS                CNVDIIS         .... on
   Start iteration      DIISMaxIt       ....    12
   Startup error        DIISStart       ....  0.200000
   # of expansion vecs  DIISMaxEq       ....     5
   Bias factor          DIISBfac        ....   1.050
   Max. coefficient     DIISMaxC        ....  10.000
 MO-DIIS                CNVKDIIS        .... off
 Trust-Rad. Augm. Hess. CNVTRAH         .... auto
   Auto Start mean grad. ratio tolernc. ....  1.125000
   Auto Start start iteration           ....    50
   Auto Start num. interpolation iter.  ....    10
   Max. Number of Micro iterations      ....    24
   Max. Number of Macro iterations      .... Maxiter - #DIIS iter
   Number of Davidson start vectors     ....     2
   Converg. threshold    (grad. norm)   ....   1.000e-05
   Grad. Scal. Fac. for Micro threshold ....   0.100
   Minimum threshold for Micro iter.    ....   1.000e-02
   NR start threshold (gradient norm)   ....   1.000e-04
   Initial trust radius                 ....   0.400
   Minimum AH scaling param. (alpha)    ....   1.000
   Maximum AH scaling param. (alpha)    .... 1000.000
   Quad. conv. algorithm                .... NR
   White noise on init. David. guess    .... on
   Maximum white noise                  ....   0.010
   Pseudo random numbers                .... off
   Inactive MOs                         .... canonical
   Orbital update algorithm             .... Taylor
   Preconditioner                       .... Diag
   Full preconditioner red. dimension   ....   250
 SOSCF                 CNVSOSCF           .... on
   Start iteration     SOSCFMaxIt         ....   150
   Startup grad/error  SOSCFStart         ....  0.003300
   Hessian update      SOSCFHessUp        .... L-BFGS
   Autom. constraints  SOSCFAutoConstrain .... off
 Level Shifting         CNVShift        .... on
   Level shift para.    LevelShift      ....    0.2500
   Turn off err/grad.   ShiftErr        ....    0.0010
 Zerner damping         CNVZerner       .... off
 Static damping         CNVDamp         .... on
   Fraction old density DampFac         ....    0.7000
   Max. Damping (<1)    DampMax         ....    0.9800
   Min. Damping (>=0)   DampMin         ....    0.0000
   Turn off err/grad.   DampErr         ....    0.1000

SCF Procedure:
 Maximum # iterations   MaxIter         ....   125
 SCF integral mode      SCFMode         .... Direct
   Integral package                     .... SHARK and LIBINT hybrid scheme
 Reset frequency        DirectResetFreq ....    20
 Integral Threshold     Thresh          ....  2.500e-11 Eh
 Primitive CutOff       TCut            ....  2.500e-12 Eh

Convergence Tolerance:
 Convergence Check Mode ConvCheckMode   .... Total+1el-Energy
 Convergence forced     ConvForced      .... 0
 Energy Change          TolE            ....  1.000e-08 Eh
 1-El. energy change                    ....  1.000e-05 Eh
 Orbital Gradient       TolG            ....  1.000e-05
 Orbital Rotation angle TolX            ....  1.000e-05
 DIIS Error             TolErr          ....  5.000e-07

------------------------------
INITIAL GUESS: MODEL POTENTIAL
------------------------------
Loading Hartree-Fock densities                     ... done
Atomic calculation to generate a density for atom 0 (C  with ECP)
  Multiplicity assumed   :    1
  Atomic configuration   : 1s2 2s2 2p2 
  Number of open shells  : 1
  Command: /home1/yeseo1ee/orca6/orca_6_1_1/orca reactant_atom6.inp "" > reactant_atom6.out
Returned from the atomic calculation with res=0
Atomic calculation to generate a density for atom 2 (N  with ECP)
  Multiplicity assumed   :    4
  Atomic configuration   : 1s2 2s2 2p3 
  Number of open shells  : 1
  Command: /home1/yeseo1ee/orca6/orca_6_1_1/orca reactant_atom7.inp "" > reactant_atom7.out
Returned from the atomic calculation with res=0
Atomic calculation to generate a density for atom 3 (O  with ECP)
  Multiplicity assumed   :    3
  Atomic configuration   : 1s2 2s2 2p4 
  Number of open shells  : 1
  Command: /home1/yeseo1ee/orca6/orca_6_1_1/orca reactant_atom8.inp "" > reactant_atom8.out
Returned from the atomic calculation with res=0
Calculating cut-offs                               ... done
Initializing the effective Hamiltonian             ... done
Setting up the integral package (SHARK)            ... done
Starting the Coulomb interaction                   ... done (   0.1 sec)
Making the grid                                    ... done (   0.1 sec)
Mapping shells                                     ... done
Starting the XC term evaluation                    ... done (   0.0 sec)
  promolecular density results
     # of electrons  =     67.996530259
     EX              =    -39.965445885
     EC              =     -2.858726979
     EX+EC           =    -42.824172864
Transforming the Hamiltonian                       ... done (   0.0 sec)
Diagonalizing the Hamiltonian                      ... done (   0.0 sec)
Back transforming the eigenvectors                 ... done (   0.0 sec)
Now organizing SCF variables                       ... done
                      ------------------
                      INITIAL GUESS DONE (   1.4 sec)
                      ------------------
             **** ENERGY FILE WAS UPDATED (reactant.en.tmp) ****
Finished Guess after   1.7 sec
Maximum memory used throughout the entire GUESS-calculation: 11.1 MB


           ************************************************************
           *        Program running with 8 parallel MPI-processes     *
           *              working on a common directory               *
           ************************************************************

-------------------------------------------------------------------------------------------
                                      ORCA LEAN-SCF
                              memory conserving SCF solver
-------------------------------------------------------------------------------------------

----------------------------------------D-I-I-S--------------------------------------------
Iteration    Energy (Eh)           Delta-E    RMSDP     MaxDP     DIISErr   Damp  Time(sec)
-------------------------------------------------------------------------------------------
               ***  Starting incremental Fock matrix formation  ***
    1    -90.2369409002797340     0.00e+00  1.35e-02  1.32e-01  2.58e-01  0.700   2.5
    2    -90.4109136057418539    -1.74e-01  8.81e-03  7.35e-02  1.18e-01  0.700   1.3
                               ***Turning on AO-DIIS***
    3    -90.4853433250961814    -7.44e-02  4.51e-03  2.52e-02  5.23e-02  0.700   1.3
    4    -90.5309504397364151    -4.56e-02  9.74e-03  5.71e-02  3.03e-02  0.000   1.3
    5    -90.6312433602190310    -1.00e-01  1.00e-03  4.93e-03  6.08e-03  0.000   1.3
                              *** Initializing SOSCF ***
---------------------------------------S-O-S-C-F--------------------------------------
Iteration    Energy (Eh)           Delta-E    RMSDP     MaxDP     MaxGrad    Time(sec)
--------------------------------------------------------------------------------------
    6    -90.6316875989536754    -4.44e-04  5.11e-04  2.52e-03  1.87e-03     1.2
               *** Restarting incremental Fock matrix formation ***
    7    -90.6317293589609392    -4.18e-05  2.90e-04  1.51e-03  8.37e-04     2.5
    8    -90.6317483069442744    -1.89e-05  2.67e-04  1.35e-03  2.74e-04     2.1
    9    -90.6317509683181299    -2.66e-06  9.68e-05  5.96e-04  3.61e-04     2.1
   10    -90.6317530759576186    -2.11e-06  2.53e-05  2.33e-04  7.11e-05     2.0
   11    -90.6317530819685828    -6.01e-09  1.20e-05  1.53e-04  8.36e-05     1.8
                 **** Energy Check signals convergence ****

               *****************************************************
               *                     SUCCESS                       *
               *           SCF CONVERGED AFTER  11 CYCLES          *
               *****************************************************

Recomputing exchange energy using gridx3       ... done (    4.649 sec)
Old exchange energy                            :    -10.061789975 Eh
New exchange energy                            :    -10.061769978 Eh
Exchange energy change after final integration :      0.000019997 Eh
Total energy after final integration           :    -90.631733145 Eh
             **** ENERGY FILE WAS UPDATED (reactant.en.tmp) ****

----------------
TOTAL SCF ENERGY
----------------

Total Energy       :        -90.63173314478890 Eh           -2466.21484 eV

Components:
Nuclear Repulsion  :        236.02659125636089 Eh            6422.61007 eV
Electronic Energy  :       -326.65834439769054 Eh           -8888.82545 eV
One Electron Energy:       -610.27531383010250 Eh          -16606.43554 eV
Two Electron Energy:        283.61696943241196 Eh            7717.61009 eV

Virial components:
Potential Energy   :       -160.44705050592745 Eh           -4365.98621 eV
Kinetic Energy     :         69.81531736113855 Eh            1899.77137 eV
Virial Ratio       :          2.29816402145638

DFT components:
N(Alpha)           :       25.000015615904 electrons
N(Beta)            :       25.000015615904 electrons
N(Total)           :       50.000031231808 electrons
E(X)               :      -12.185753853411 Eh       
E(C)               :       -1.959251029944 Eh       
E(XC)              :      -14.145004883354 Eh       

---------------
SCF CONVERGENCE
---------------

  Last Energy change         ...    6.0110e-09  Tolerance :   1.0000e-08
  Last MAX-Density change    ...    1.5348e-04  Tolerance :   1.0000e-07
  Last RMS-Density change    ...    1.2025e-05  Tolerance :   5.0000e-09
  Last DIIS Error            ...    1.8744e-03  Tolerance :   5.0000e-07
  Last Orbital Gradient      ...    8.3601e-05  Tolerance :   1.0000e-05
  Last Orbital Rotation      ...    8.7616e-05  Tolerance :   1.0000e-05


----------------
ORBITAL ENERGIES
----------------

  NO   OCC          E(Eh)            E(eV) 
   0   2.0000      -1.363907       -37.1138 
   1   2.0000      -1.234660       -33.5968 
   2   2.0000      -1.182361       -32.1737 
   3   2.0000      -0.991429       -26.9781 
   4   2.0000      -0.935781       -25.4639 
   5   2.0000      -0.873005       -23.7557 
   6   2.0000      -0.836150       -22.7528 
   7   2.0000      -0.731020       -19.8921 
   8   2.0000      -0.692744       -18.8505 
   9   2.0000      -0.685698       -18.6588 
  10   2.0000      -0.673873       -18.3370 
  11   2.0000      -0.653694       -17.7879 
  12   2.0000      -0.624545       -16.9947 
  13   2.0000      -0.623213       -16.9585 
  14   2.0000      -0.596094       -16.2205 
  15   2.0000      -0.568313       -15.4646 
  16   2.0000      -0.543832       -14.7984 
  17   2.0000      -0.503318       -13.6960 
  18   2.0000      -0.495802       -13.4914 
  19   2.0000      -0.478756       -13.0276 
  20   2.0000      -0.440873       -11.9968 
  21   2.0000      -0.430027       -11.7016 
  22   2.0000      -0.419348       -11.4110 
  23   2.0000      -0.383968       -10.4483 
  24   2.0000      -0.378964       -10.3121 
  25   0.0000      -0.028516        -0.7760 
  26   0.0000       0.069611         1.8942 
  27   0.0000       0.076976         2.0946 
  28   0.0000       0.096211         2.6180 
  29   0.0000       0.105230         2.8634 
  30   0.0000       0.105849         2.8803 
  31   0.0000       0.121372         3.3027 
  32   0.0000       0.126632         3.4458 
  33   0.0000       0.136874         3.7245 
  34   0.0000       0.168960         4.5976 
  35   0.0000       0.180958         4.9241 
*Only the first 10 virtual orbitals were printed.

                    ********************************
                    * MULLIKEN POPULATION ANALYSIS *
                    ********************************

-----------------------
MULLIKEN ATOMIC CHARGES
-----------------------
   0 C :   -0.016826
   1 C :    0.127635
   2 N :    0.373217
   3 O :   -0.299969
   4 O :   -0.267951
   5 O :   -0.269698
   6 C :    0.054807
   7 C :   -0.040787
   8 C :   -0.012080
   9 H :    0.069055
  10 H :    0.040945
  11 H :    0.064633
  12 H :    0.064578
  13 H :    0.028643
  14 H :    0.049246
  15 H :    0.034552
Sum of atomic charges:   -0.0000000

--------------------------------
MULLIKEN REDUCED ORBITAL CHARGES
--------------------------------
  0 C s       :     0.999626  s :     0.999626
      pz      :     0.989954  p :     2.958988
      px      :     1.015362
      py      :     0.953671
      dz2     :     0.002977  d :     0.058212
      dxz     :     0.008885
      dyz     :     0.014225
      dx2y2   :     0.018026
      dxy     :     0.014099

  1 C s       :     1.075304  s :     1.075304
      pz      :     0.941961  p :     2.610057
      px      :     0.777888
      py      :     0.890208
      dz2     :     0.015313  d :     0.187004
      dxz     :     0.039480
      dyz     :     0.032864
      dx2y2   :     0.049615
      dxy     :     0.049733

  2 N s       :     1.298948  s :     1.298948
      pz      :     1.111899  p :     3.110295
      px      :     0.970180
      py      :     1.028217
      dz2     :     0.016777  d :     0.217540
      dxz     :     0.040377
      dyz     :     0.034229
      dx2y2   :     0.061335
      dxy     :     0.064822

  3 O s       :     1.894507  s :     1.894507
      pz      :     1.435906  p :     4.361729
      px      :     1.108987
      py      :     1.816836
      dz2     :     0.006592  d :     0.043734
      dxz     :     0.013743
      dyz     :     0.001406
      dx2y2   :     0.013852
      dxy     :     0.008141

  4 O s       :     1.895735  s :     1.895735
      pz      :     1.493973  p :     4.328014
      px      :     1.580033
      py      :     1.254009
      dz2     :     0.005280  d :     0.044201
      dxz     :     0.004328
      dyz     :     0.009275
      dx2y2   :     0.010620
      dxy     :     0.014698

  5 O s       :     1.703945  s :     1.703945
      pz      :     1.671238  p :     4.522730
      px      :     1.278775
      py      :     1.572716
      dz2     :     0.005957  d :     0.043023
      dxz     :     0.007154
      dyz     :     0.007129
      dx2y2   :     0.011979
      dxy     :     0.010804

  6 C s       :     1.008707  s :     1.008707
      pz      :     0.974496  p :     2.792627
      px      :     0.953590
      py      :     0.864541
      dz2     :     0.022957  d :     0.143859
      dxz     :     0.028309
      dyz     :     0.032962
      dx2y2   :     0.032139
      dxy     :     0.027493

  7 C s       :     1.038612  s :     1.038612
      pz      :     0.995348  p :     2.913175
      px      :     0.908810
      py      :     1.009017
      dz2     :     0.005325  d :     0.089000
      dxz     :     0.013304
      dyz     :     0.020144
      dx2y2   :     0.023378
      dxy     :     0.026849

  8 C s       :     1.015004  s :     1.015004
      pz      :     0.957669  p :     2.932477
      px      :     0.990817
      py      :     0.983991
      dz2     :     0.003913  d :     0.064599
      dxz     :     0.006273
      dyz     :     0.015887
      dx2y2   :     0.019436
      dxy     :     0.019090

  9 H s       :     0.877468  s :     0.877468
      pz      :     0.015424  p :     0.053477
      px      :     0.027000
      py      :     0.011053

 10 H s       :     0.904742  s :     0.904742
      pz      :     0.018209  p :     0.054313
      px      :     0.014104
      py      :     0.022000

 11 H s       :     0.894088  s :     0.894088
      pz      :     0.014042  p :     0.041278
      px      :     0.009407
      py      :     0.017829

 12 H s       :     0.894148  s :     0.894148
      pz      :     0.020476  p :     0.041274
      px      :     0.011890
      py      :     0.008909

 13 H s       :     0.922312  s :     0.922312
      pz      :     0.016464  p :     0.049045
      px      :     0.015955
      py      :     0.016625

 14 H s       :     0.900069  s :     0.900069
      pz      :     0.016427  p :     0.050685
      px      :     0.015828
      py      :     0.018429

 15 H s       :     0.915360  s :     0.915360
      pz      :     0.014487  p :     0.050088
      px      :     0.024556
      py      :     0.011045



                     *******************************
                     * LOEWDIN POPULATION ANALYSIS *
                     *******************************

----------------------
LOEWDIN ATOMIC CHARGES
----------------------
   0 C :   -0.037380
   1 C :   -0.023446
   2 N :    0.172701
   3 O :   -0.166879
   4 O :   -0.146753
   5 O :   -0.013431
   6 C :   -0.035377
   7 C :   -0.053279
   8 C :   -0.051813
   9 H :    0.060938
  10 H :    0.045037
  11 H :    0.056975
  12 H :    0.056954
  13 H :    0.048560
  14 H :    0.044623
  15 H :    0.042570

-------------------------------
LOEWDIN REDUCED ORBITAL CHARGES
-------------------------------
  0 C s       :     0.832643  s :     0.832643
      pz      :     0.942509  p :     3.013785
      px      :     1.050781
      py      :     1.020495
      dz2     :     0.011907  d :     0.190952
      dxz     :     0.022952
      dyz     :     0.039539
      dx2y2   :     0.065209
      dxy     :     0.051345

  1 C s       :     0.782957  s :     0.782957
      pz      :     0.907697  p :     2.709746
      px      :     0.851333
      py      :     0.950716
      dz2     :     0.049732  d :     0.530742
      dxz     :     0.101757
      dyz     :     0.089262
      dx2y2   :     0.143590
      dxy     :     0.146401

  2 N s       :     0.970845  s :     0.970845
      pz      :     1.062034  p :     3.279431
      px      :     1.099238
      py      :     1.118160
      dz2     :     0.051170  d :     0.577024
      dxz     :     0.102096
      dyz     :     0.081765
      dx2y2   :     0.164899
      dxy     :     0.177094

  3 O s       :     1.608737  s :     1.608737
      pz      :     1.437705  p :     4.455720
      px      :     1.272105
      py      :     1.745910
      dz2     :     0.013496  d :     0.102423
      dxz     :     0.031490
      dyz     :     0.003062
      dx2y2   :     0.035126
      dxy     :     0.019249

  4 O s       :     1.612726  s :     1.612726
      pz      :     1.469732  p :     4.430603
      px      :     1.587355
      py      :     1.373516
      dz2     :     0.013792  d :     0.103424
      dxz     :     0.008589
      dyz     :     0.017623
      dx2y2   :     0.025899
      dxy     :     0.037521

  5 O s       :     1.386334  s :     1.386334
      pz      :     1.615597  p :     4.517818
      px      :     1.341852
      py      :     1.560369
      dz2     :     0.015390  d :     0.109279
      dxz     :     0.021928
      dyz     :     0.014974
      dx2y2   :     0.031133
      dxy     :     0.025854

  6 C s       :     0.758922  s :     0.758922
      pz      :     1.005983  p :     2.855426
      px      :     0.944910
      py      :     0.904534
      dz2     :     0.063265  d :     0.421029
      dxz     :     0.081000
      dyz     :     0.101517
      dx2y2   :     0.094800
      dxy     :     0.080447

  7 C s       :     0.816055  s :     0.816055
      pz      :     0.927286  p :     2.944053
      px      :     0.966691
      py      :     1.050076
      dz2     :     0.018963  d :     0.293171
      dxz     :     0.043601
      dyz     :     0.058428
      dx2y2   :     0.075621
      dxy     :     0.096557

  8 C s       :     0.837097  s :     0.837097
      pz      :     0.921466  p :     3.001630
      px      :     1.042803
      py      :     1.037361
      dz2     :     0.013866  d :     0.213086
      dxz     :     0.017273
      dyz     :     0.046800
      dx2y2   :     0.066348
      dxy     :     0.068798

  9 H s       :     0.782542  s :     0.782542
      pz      :     0.048021  p :     0.156520
      px      :     0.069544
      py      :     0.038955

 10 H s       :     0.798319  s :     0.798319
      pz      :     0.052475  p :     0.156644
      px      :     0.046158
      py      :     0.058010

 11 H s       :     0.799720  s :     0.799720
      pz      :     0.047202  p :     0.143305
      px      :     0.038142
      py      :     0.057960

 12 H s       :     0.799738  s :     0.799738
      pz      :     0.062505  p :     0.143308
      px      :     0.044172
      py      :     0.036631

 13 H s       :     0.800679  s :     0.800679
      pz      :     0.050851  p :     0.150760
      px      :     0.048452
      py      :     0.051457

 14 H s       :     0.803491  s :     0.803491
      pz      :     0.048884  p :     0.151886
      px      :     0.050581
      py      :     0.052421

 15 H s       :     0.807248  s :     0.807248
      pz      :     0.044992  p :     0.150182
      px      :     0.067006
      py      :     0.038185



                      *****************************
                      * MAYER POPULATION ANALYSIS *
                      *****************************

  NA   - Mulliken gross atomic population
  ZA   - Total nuclear charge
  QA   - Mulliken gross atomic charge
  VA   - Mayer's total valence
  BVA  - Mayer's bonded valence
  FA   - Mayer's free valence

  ATOM       NA         ZA         QA         VA         BVA        FA
  0 C      4.0168     4.0000    -0.0168     3.9676     3.9676    -0.0000
  1 C      3.8724     4.0000     0.1276     4.1332     4.1332    -0.0000
  2 N      4.6268     5.0000     0.3732     3.9184     3.9184    -0.0000
  3 O      6.3000     6.0000    -0.3000     1.7697     1.7697    -0.0000
  4 O      6.2680     6.0000    -0.2680     1.8035     1.8035     0.0000
  5 O      6.2697     6.0000    -0.2697     2.1024     2.1024    -0.0000
  6 C      3.9452     4.0000     0.0548     3.9910     3.9910     0.0000
  7 C      4.0408     4.0000    -0.0408     4.0387     4.0387     0.0000
  8 C      4.0121     4.0000    -0.0121     3.9861     3.9861     0.0000
  9 H      0.9309     1.0000     0.0691     1.0531     1.0531     0.0000
 10 H      0.9591     1.0000     0.0409     1.0528     1.0528    -0.0000
 11 H      0.9354     1.0000     0.0646     1.0087     1.0087     0.0000
 12 H      0.9354     1.0000     0.0646     1.0086     1.0086     0.0000
 13 H      0.9714     1.0000     0.0286     1.0497     1.0497     0.0000
 14 H      0.9508     1.0000     0.0492     1.0434     1.0434     0.0000
 15 H      0.9654     1.0000     0.0346     1.0402     1.0402    -0.0000

  Mayer bond orders larger than 0.100000
B(  0-C ,  1-C ) :   1.8541 B(  0-C ,  9-H ) :   0.9789 B(  0-C , 10-H ) :   0.9870 
B(  1-C ,  2-N ) :   0.9695 B(  1-C ,  5-O ) :   1.1225 B(  2-N ,  3-O ) :   1.4492 
B(  2-N ,  4-O ) :   1.4917 B(  3-O ,  4-O ) :   0.2372 B(  5-O ,  6-C ) :   0.9135 
B(  6-C ,  7-C ) :   1.0414 B(  6-C , 11-H ) :   0.9821 B(  6-C , 12-H ) :   0.9821 
B(  7-C ,  8-C ) :   1.9374 B(  7-C , 13-H ) :   0.9955 B(  8-C , 14-H ) :   0.9948 
B(  8-C , 15-H ) :   0.9964 

-------
TIMINGS
-------

Total SCF time: 0 days 0 hours 0 min 26 sec 

Total time                  ....      26.127 sec
Sum of individual times     ....      24.419 sec  ( 93.5%)

SCF preparation             ....       0.329 sec  (  1.3%)
Fock matrix formation       ....      23.803 sec  ( 91.1%)
  Startup                   ....       0.022 sec  (  0.1% of F)
  Split-RI-J                ....       1.072 sec  (  4.5% of F)
  Chain of spheres X        ....      22.492 sec  ( 94.5% of F)
  XC integration            ....       1.696 sec  (  7.1% of F)
    XC Preparation          ....       0.000 sec  (  0.0% of XC)
    Basis function eval.    ....       0.625 sec  ( 36.9% of XC)
    Density eval.           ....       0.257 sec  ( 15.2% of XC)
    XC-Functional eval.     ....       0.314 sec  ( 18.5% of XC)
    XC-Potential eval.      ....       0.318 sec  ( 18.8% of XC)
Diagonalization             ....       0.000 sec  (  0.0%)
Density matrix formation    ....       0.038 sec  (  0.1%)
Total Energy calculation    ....       0.020 sec  (  0.1%)
Population analysis         ....       0.013 sec  (  0.0%)
Orbital Transformation      ....       0.017 sec  (  0.1%)
Orbital Orthonormalization  ....       0.000 sec  (  0.0%)
DIIS solution               ....       0.124 sec  (  0.5%)
SOSCF solution              ....       0.076 sec  (  0.3%)
Finished LeanSCF after  26.1 sec

Maximum memory used throughout the entire LEANSCF-calculation: 18.8 MB


           ************************************************************
           *        Program running with 8 parallel MPI-processes     *
           *              working on a common directory               *
           ************************************************************

------------------------------------------------------------------------------
                         ORCA PROPERTY INTEGRAL CALCULATIONS
------------------------------------------------------------------------------

GBWName                                   ... reactant.gbw
Number of atoms                           ...     16
Number of basis functions                 ...    152
Max core memory                           ...   4000 MB

Dipole integrals                          ... YES
Quadrupole integrals                      ...  NO
Linear momentum integrals                 ...  NO
Angular momentum integrals                ...  NO
Higher moments length integrals           ...  NO
Higher moments velocity integrals         ...  NO
Kinetic energy integrals                  ...  NO
GIAO right hand sides                     ...  NO
GIAO dipole derivative integrals          ...  NO
SOC integrals                             ...  NO
EPR diamagnetic integrals (GIAO)          ...  NO
EPR gauge integrals                       ...  NO
Field gradient integrals                  ...  NO (   0 nuclei)
Spin-dipole/Fermi contact integrals       ...  NO (   0 nuclei)
Contact density integrals                 ...  NO (   0 nuclei)
Nucleus-orbit integrals                   ...  NO (   0 nuclei)
Geometric perturbations                   ...  NO (  16 nuclei)

Choice of electric origin   ... Center of mass
Position of electric origin ... ( -1.0323,  0.8382,  0.7248) 
Choice of magnetic origin   ... GIAO
Position of magnetic origin ... (  0.0000,  0.0000,  0.0000) 

Calculating integrals                     ... Electric Dipole (Length)     done (  0.0 sec)

Property integrals calculated in   0.0 sec

Maximum memory used throughout the entire PROPINT-calculation: 11.4 MB


-------------------------------------------------------------------------------
                          DFT DISPERSION CORRECTION                            
                                                                               
                                DFTD4 V3.4.0                                   
-------------------------------------------------------------------------------
The wB97X-3c composite method is recognized
Using three-body term ABC
Active option DFTDOPT                   ...         5   

-------------------------   ----------------
Dispersion correction           -0.015725263
-------------------------   ----------------


-------------------------   --------------------
FINAL SINGLE POINT ENERGY       -90.647458407607
-------------------------   --------------------



           ************************************************************
           *        Program running with 8 parallel MPI-processes     *
           *              working on a common directory               *
           ************************************************************
------------------------------------------------------------------------------
                         ORCA SCF GRADIENT CALCULATION
------------------------------------------------------------------------------

Nuc. rep. gradient        (SHARK) ... done (  0.0 sec)
HCore & Overlap gradient  (SHARK) ... done (  0.1 sec)
ECP gradient              (SHARK) ... done (  0.4 sec)
Split-RIJ-J gradient      (SHARK) ... done (  0.5 sec)
COSX-gradient                     ... done (  7.7 sec)
XC gradient                       ... done (  0.6 sec)
Dispersion correction             ... done (  0.0 sec)

-------------------
DISPERSION GRADIENT
-------------------

   1   C   :   -0.000365990   -0.000451469   -0.000026791
   2   C   :   -0.000231103   -0.000028765    0.000080234
   3   N   :   -0.000184237    0.000278029    0.000178031
   4   O   :   -0.000306528    0.000168273    0.000184633
   5   O   :   -0.000048102    0.000402478    0.000171538
   6   O   :    0.000033608   -0.000001298   -0.000013734
   7   C   :    0.000187076   -0.000280759   -0.000180182
   8   C   :    0.000333855   -0.000072708   -0.000159213
   9   C   :    0.000419864    0.000240326   -0.000074493
  10   H   :   -0.000090108   -0.000083723    0.000003800
  11   H   :   -0.000100761   -0.000136356   -0.000011946
  12   H   :    0.000081589   -0.000096723    0.000023878
  13   H   :    0.000025306   -0.000042629   -0.000118847
  14   H   :    0.000077264   -0.000035452   -0.000043905
  15   H   :    0.000104404    0.000092067   -0.000006281
  16   H   :    0.000063863    0.000048709   -0.000006723

Difference to translation invariance:
           :   -0.0000000000   -0.0000000000    0.0000000000

Difference to rotation invariance:
           :    0.0000000000   -0.0000000000   -0.0000000000

Norm of the Dispersion gradient    ...    0.0012384468
RMS gradient                       ...    0.0001787544
MAX gradient                       ...    0.0004514693

------------------
CARTESIAN GRADIENT
------------------

   1   C   :   -0.008471310   -0.012259618   -0.001296467
   2   C   :   -0.016433005    0.009467432    0.010081241
   3   N   :    0.014017275   -0.035527047   -0.018997266
   4   O   :   -0.038797922   -0.000926586    0.014923266
   5   O   :    0.023871169    0.040288922    0.005876614
   6   O   :    0.027144575    0.014909765   -0.005053978
   7   C   :   -0.007035040   -0.004040925    0.001244965
   8   C   :   -0.007652301   -0.021490822   -0.005129980
   9   C   :    0.010965514    0.015001983    0.001354757
  10   H   :   -0.007172321   -0.006601164    0.000326023
  11   H   :   -0.003301218   -0.004820904   -0.000530724
  12   H   :    0.003814387   -0.001471532    0.001536165
  13   H   :    0.001636203    0.000632379   -0.004006413
  14   H   :    0.004725368    0.000834814   -0.001548304
  15   H   :   -0.000491824    0.003511327    0.001528776
  16   H   :    0.003180449    0.002491976   -0.000308675

Difference to translation invariance:
           :   -0.0000000000    0.0000000000    0.0000000000

Difference to rotation invariance:
           :    0.0000147278   -0.0000239561   -0.0000437726

Norm of the Cartesian gradient     ...    0.0929054158
RMS gradient                       ...    0.0134097417
MAX gradient                       ...    0.0402889223

-------
TIMINGS
-------

Total SCF gradient time     ....        9.223 sec

Densities                   ....       0.000 sec  (  0.0%)
One electron gradient       ....       0.052 sec  (  0.6%)
RI-J Coulomb gradient       ....       0.465 sec  (  5.0%)
COSX gradient               ....       7.736 sec  ( 83.9%)
XC gradient                 ....       0.567 sec  (  6.1%)

Maximum memory used throughout the entire SCFGRAD-calculation: 31.4 MB
------------------------------------------------------------------------------
                         ORCA GEOMETRY RELAXATION STEP
------------------------------------------------------------------------------

Reading the OPT-File                    .... done
Getting information on internals        .... done
Copying old internal coords+grads       .... done
Making the new internal coordinates     .... (2022 redundants) done
Validating the new internal coordinates .... (2022 redundants) done
Calculating the B-matrix                .... done
Calculating the G,G- and P matrices     .... done
Transforming gradient to internals      .... done
Projecting the internal gradient        .... done
Number of atoms                         ....  16
Number of internal coordinates          ....  59
Current Energy                          ....   -90.647458408 Eh
Current gradient norm                   ....     0.092905416 Eh/bohr
Maximum allowed component of the step   ....  0.300
Current trust radius                    ....  0.300
Evaluating the initial hessian          ....  (Almloef) done
Projecting the Hessian                  .... done
Forming the augmented Hessian           .... done
Diagonalizing the augmented Hessian     .... done
Last element of RFO vector              ....  0.991606833
Lowest eigenvalues of augmented Hessian:
 -0.010958612  0.012547257  0.013063676  0.013063724  0.019471257
Length of the computed step             ....  0.130384275
The final length of the internal step   ....  0.130384275
Converting the step to Cartesian space:
 Initial RMS(Int)=    0.0169745868
Transforming coordinates:
 Iter   0:  RMS(Cart)=    0.0572087653 RMS(Int)=    2.0036182474
done
Storing new coordinates                 .... done

                                .--------------------.
          ----------------------|Geometry convergence|-------------------------
          Item                value                   Tolerance       Converged
          ---------------------------------------------------------------------
          RMS gradient        0.0114793110            0.0001000000      NO
          MAX gradient        0.0471172272            0.0003000000      NO
          RMS step            0.0169745868            0.0020000000      NO
          MAX step            0.0629551222            0.0040000000      NO
          -------------------------------------------------------------------------
          ........................................................
          Max(Bonds)      0.0333      Max(Angles)    1.37
          Max(Dihed)        0.38      Max(Improp)    0.00
          ---------------------------------------------------------------------

The optimization has not yet converged - more geometry cycles are needed


    ---------------------------------------------------------------------------
                         Redundant Internal Coordinates
                            (Angstroem and degrees)

        Definition                    Value    dE/dq     Step     New-Value
    ----------------------------------------------------------------------------
     1. B(C   1,C   0)                1.3419  0.030125 -0.0211    1.3209   
     2. B(N   2,C   1)                1.4768  0.004224 -0.0053    1.4714   
     3. B(O   3,N   2)                1.2413  0.041465 -0.0250    1.2163   
     4. B(O   4,N   2)                1.2400  0.047117 -0.0283    1.2117   
     5. B(O   5,C   1)                1.3664  0.039113 -0.0333    1.3331   
     6. B(C   6,O   5)                1.4226  0.010465 -0.0109    1.4117   
     7. B(C   7,C   6)                1.5036  0.010920 -0.0137    1.4899   
     8. B(C   8,C   7)                1.3405  0.024713 -0.0172    1.3233   
     9. B(H   9,C   0)                1.0869  0.007361 -0.0104    1.0765   
    10. B(H  10,C   0)                1.0825  0.002920 -0.0041    1.0785   
    11. B(H  11,C   6)                1.0966  0.002442 -0.0036    1.0930   
    12. B(H  12,C   6)                1.0966  0.002441 -0.0036    1.0930   
    13. B(H  13,C   7)                1.0882  0.002902 -0.0041    1.0841   
    14. B(H  14,C   8)                1.0870  0.003470 -0.0049    1.0821   
    15. B(H  15,C   8)                1.0857  0.003627 -0.0051    1.0806   
    16. A(H   9,C   0,H  10)          115.93 -0.007851    1.37    117.30   
    17. A(C   1,C   0,H   9)          121.88  0.005292   -0.90    120.98   
    18. A(C   1,C   0,H  10)          122.19  0.002559   -0.48    121.71   
    19. A(N   2,C   1,O   5)          109.26 -0.004659    0.63    109.89   
    20. A(C   0,C   1,O   5)          131.02  0.005788   -0.75    130.26   
    21. A(C   0,C   1,N   2)          119.72 -0.001130    0.13    119.85   
    22. A(C   1,N   2,O   4)          118.27  0.001863   -0.22    118.04   
    23. A(C   1,N   2,O   3)          117.64  0.002691   -0.33    117.31   
    24. A(O   3,N   2,O   4)          124.09 -0.004555    0.56    124.65   
    25. A(C   1,O   5,C   6)          116.72  0.006350   -0.86    115.85   
    26. A(C   7,C   6,H  11)          108.30 -0.005081    0.97    109.27   
    27. A(O   5,C   6,H  11)          109.97 -0.000114   -0.19    109.79   
    28. A(H  11,C   6,H  12)          109.50  0.002270   -0.40    109.11   
    29. A(O   5,C   6,H  12)          109.97  0.000259   -0.19    109.78   
    30. A(C   7,C   6,H  12)          108.30 -0.005014    0.97    109.27   
    31. A(O   5,C   6,C   7)          110.75  0.007528   -1.13    109.63   
    32. A(C   8,C   7,H  13)          118.05 -0.006850    1.02    119.07   
    33. A(C   6,C   7,H  13)          115.27  0.001631   -0.30    114.97   
    34. A(C   6,C   7,C   8)          126.68  0.005219   -0.72    125.96   
    35. A(H  14,C   8,H  15)          117.10 -0.002396    0.42    117.52   
    36. A(C   7,C   8,H  15)          120.92  0.001314   -0.23    120.69   
    37. A(C   7,C   8,H  14)          121.98  0.001082   -0.19    121.79   
    38. D(N   2,C   1,C   0,H   9)      0.00 -0.000007    0.01      0.01   
    39. D(O   5,C   1,C   0,H   9)   -180.00  0.000005   -0.01   -180.01   
    40. D(N   2,C   1,C   0,H  10)   -180.00 -0.000009    0.01   -179.99   
    41. D(O   5,C   1,C   0,H  10)      0.00  0.000003   -0.01     -0.00   
    42. D(O   3,N   2,C   1,O   5)    180.00 -0.000025    0.05    180.05   
    43. D(O   4,N   2,C   1,C   0)    180.00 -0.000009    0.03    180.02   
    44. D(O   3,N   2,C   1,C   0)     -0.00 -0.000015    0.04      0.04   
    45. D(O   4,N   2,C   1,O   5)     -0.00 -0.000018    0.04      0.04   
    46. D(C   6,O   5,C   1,N   2)   -180.00  0.000013   -0.02   -180.02   
    47. D(C   6,O   5,C   1,C   0)      0.00  0.000002   -0.00     -0.00   
    48. D(H  12,C   6,O   5,C   1)     60.33  0.001393   -0.35     59.98   
    49. D(H  11,C   6,O   5,C   1)    -60.34 -0.001516    0.38    -59.95   
    50. D(C   7,C   6,O   5,C   1)    180.00  0.000100    0.01    180.01   
    51. D(C   8,C   7,C   6,H  11)   -120.67 -0.001236    0.27   -120.40   
    52. D(C   8,C   7,C   6,O   5)     -0.00 -0.000025   -0.03     -0.03   
    53. D(H  13,C   7,C   6,H  11)     59.33 -0.000821    0.21     59.54   
    54. D(H  13,C   7,C   6,O   5)    180.00  0.000390   -0.09    179.91   
    55. D(C   8,C   7,C   6,H  12)    120.66  0.001688   -0.34    120.32   
    56. D(H  15,C   8,C   7,H  13)      0.00 -0.000212    0.03      0.03   
    57. D(H  15,C   8,C   7,C   6)    180.00  0.000213   -0.03    179.97   
    58. D(H  14,C   8,C   7,H  13)    180.00 -0.000211    0.03    180.03   
    59. D(H  14,C   8,C   7,C   6)     -0.00  0.000215   -0.03     -0.03   
    ----------------------------------------------------------------------------

Geometry step timings:
Preparation and reading OPT file:      0.000 s ( 1.636 %)
Internal coordinates            :      0.000 s ( 1.636 %)
B/P matrices and projection     :      0.001 s (21.581 %)
Hessian update/contruction      :      0.001 s (30.102 %)
Making the step                 :      0.001 s (17.073 %)
Converting the step to Cartesian:      0.000 s ( 2.902 %)
Storing new data                :      0.000 s ( 2.254 %)
Checking convergence            :      0.000 s ( 2.316 %)
[...]
     23       0.000455  -0.015953  -0.038041   0.000280  -0.003593  -0.000035
     24       0.000033  -0.024759   0.006586   0.000129   0.086737  -0.000051
     25      -0.000031  -0.053929   0.034078  -0.000224  -0.024160   0.000004
     26       0.000085  -0.010704   0.010328  -0.000135  -0.043291   0.000021
     27       0.000578   0.000125   0.004103   0.610631  -0.000574   0.705057
     28      -0.000452   0.000067   0.000114   0.020742   0.000104   0.034479
     29       0.001111  -0.000024  -0.001578  -0.233327   0.000265  -0.265418
     30      -0.000847  -0.000129  -0.001917  -0.291976   0.000445   0.249298
     31       0.000990   0.000103   0.003538   0.602967  -0.001073  -0.520774
     32      -0.001628   0.000090   0.002100   0.344237  -0.000584  -0.296181
     33      -0.036888   0.000334   0.002603   0.000811  -0.000029  -0.000390
     34       0.566096   0.003406   0.018644   0.003149   0.000541  -0.004220
     35      -0.415744  -0.003144  -0.013852  -0.002766  -0.000607   0.003096
     36      -0.354920   0.002902   0.014604   0.003260   0.000461  -0.003256
     37      -0.189920   0.000862   0.006998   0.001165   0.000053  -0.001631
     38      -0.578166   0.003414   0.016688   0.003246   0.000644  -0.004062
     39      -0.000379  -0.246619  -0.516215   0.003211  -0.045474   0.000151
     40       0.000362   0.280534   0.592108  -0.003636   0.054986   0.000003
     41      -0.001126   0.203410   0.427645  -0.002643   0.038742  -0.000058
     42       0.000016  -0.348564   0.200960  -0.001746  -0.388451  -0.000017
     43      -0.000016   0.411180  -0.239310   0.001974   0.479369  -0.000134
     44      -0.000007   0.293046  -0.169807   0.001438   0.334593  -0.000046
     45       0.000303   0.614852  -0.236082   0.000476  -0.649643   0.000288
     46      -0.000308   0.167173  -0.065395   0.000223  -0.185228  -0.000008
     47       0.000809  -0.178538   0.068102  -0.000107   0.185417  -0.000116


-----------
IR SPECTRUM
-----------

 Mode   freq       eps      Int      T**2         TX        TY        TZ
       cm**-1   L/(mol*cm) km/mol    a.u.
----------------------------------------------------------------------------
  6:     37.81   0.000059    0.30  0.000489  (-0.007621  0.007450 -0.019366)
  7:     72.28   0.000316    1.60  0.001366  ( 0.012709 -0.012358  0.032435)
  8:     81.79   0.000016    0.08  0.000062  ( 0.002716 -0.002615  0.006883)
  9:    119.74   0.000134    0.68  0.000350  ( 0.017566  0.001521 -0.006248)
 10:    205.99   0.000425    2.15  0.000643  ( 0.008787 -0.008461  0.022239)
 11:    280.66   0.000068    0.34  0.000075  (-0.005756  0.005013  0.004120)
 12:    348.03   0.000362    1.83  0.000325  ( 0.016336 -0.002287 -0.007248)
 13:    444.62   0.000571    2.89  0.000401  (-0.015456  0.008731  0.009262)
 14:    480.92   0.000928    4.69  0.000602  (-0.008596  0.008249 -0.021459)
 15:    516.65   0.000149    0.75  0.000090  (-0.003187  0.007486  0.004895)
 16:    587.13   0.003206   16.20  0.001704  ( 0.014280 -0.013704  0.036223)
 17:    637.17   0.000118    0.59  0.000058  (-0.003668  0.005687  0.003431)
 18:    713.38   0.002315   11.70  0.001013  (-0.008858  0.027294  0.013751)
 19:    722.71   0.000336    1.70  0.000145  ( 0.004166 -0.003812  0.010636)
 20:    828.25   0.002181   11.02  0.000822  ( 0.009958 -0.009385  0.025189)
 21:    897.67   0.010973   55.45  0.003815  ( 0.021484 -0.020374  0.054203)
 22:    924.58   0.005358   27.08  0.001808  ( 0.016813 -0.033868 -0.019458)
 23:    971.31   0.000068    0.34  0.000022  ( 0.002947  0.003602  0.000242)
 24:    987.56   0.004130   20.87  0.001305  ( 0.003810  0.033923  0.011820)
 25:    992.50   0.009153   46.26  0.002878  ( 0.018524 -0.018061  0.046996)
 26:   1036.16   0.003225   16.30  0.000971  ( 0.010739 -0.010367  0.027359)
 27:   1070.88   0.001254    6.34  0.000365  (-0.006746  0.006317 -0.016735)
 28:   1085.21   0.008333   42.11  0.002396  (-0.045900 -0.007940  0.015050)
 29:   1172.81   0.006211   31.39  0.001653  ( 0.015426 -0.032765 -0.018469)
 30:   1309.89   0.000132    0.67  0.000031  (-0.002421  0.001868 -0.004691)
 31:   1329.40   0.052793  266.79  0.012393  (-0.103834 -0.002424  0.040066)
 32:   1347.31   0.002027   10.24  0.000469  (-0.020308 -0.001670  0.007364)
 33:   1435.14   0.008908   45.02  0.001937  (-0.040738  0.001482  0.016592)
 34:   1470.69   0.001749    8.84  0.000371  ( 0.017534 -0.002188 -0.007671)
 35:   1483.00   0.013856   70.02  0.002916  (-0.003604 -0.050837 -0.017839)
 36:   1495.16   0.020616  104.19  0.004303  (-0.026287  0.051990  0.030148)
 37:   1531.71   0.003353   16.94  0.000683  ( 0.022888  0.011769 -0.004548)
 38:   1746.17   0.106892  540.19  0.019103  ( 0.120414  0.063316 -0.024385)
 39:   1778.36   0.003561   18.00  0.000625  (-0.020584 -0.013943  0.002594)
 40:   1796.65   0.009994   50.51  0.001736  (-0.039092 -0.007911  0.012049)
 41:   3081.09   0.002851   14.41  0.000289  ( 0.002177 -0.015460 -0.006708)
 42:   3135.89   0.002779   14.05  0.000277  ( 0.005816 -0.005530  0.014566)
 43:   3222.76   0.000563    2.85  0.000055  (-0.004465 -0.005864 -0.000481)
 44:   3240.67   0.001363    6.89  0.000131  ( 0.008535 -0.005392 -0.005413)
 45:   3270.10   0.002186   11.05  0.000209  ( 0.013423  0.003508 -0.004014)
 46:   3328.58   0.000051    0.26  0.000005  ( 0.000895  0.001950  0.000384)
 47:   3381.26   0.001728    8.73  0.000159  ( 0.010963 -0.003023 -0.005492)

* The epsilon (eps) is given for a Dirac delta lineshape.
** The dipole moment derivative (T) already includes vibrational overlap.

The first frequency considered to be a vibration is 6
The total number of vibrations considered is 42


--------------------------
THERMOCHEMISTRY AT 298.15K
--------------------------

Temperature         ...   298.15 K
Pressure            ...     1.00 atm
Total Mass          ...   129.11 AMU
Quasi RRHO          ...     True
Cut-Off Frequency   ...     1.00 cm^-1

Throughout the following assumptions are being made:
  (1) The electronic state is orbitally nondegenerate
  (2) There are no thermally accessible electronically excited states
  (3) Hindered rotations indicated by low frequency modes are not
      treated as such but are treated as vibrations and this may
      cause some error
  (4) All equations used are the standard statistical mechanics
      equations for an ideal gas
  (5) All vibrations are strictly harmonic

freq.      37.81  E(vib)   ...       0.54 
freq.      72.28  E(vib)   ...       0.50 
freq.      81.79  E(vib)   ...       0.48 
freq.     119.74  E(vib)   ...       0.44 
freq.     205.99  E(vib)   ...       0.35 
freq.     280.66  E(vib)   ...       0.28 
freq.     348.03  E(vib)   ...       0.23 
freq.     444.62  E(vib)   ...       0.17 
freq.     480.92  E(vib)   ...       0.15 
freq.     516.65  E(vib)   ...       0.13 
freq.     587.13  E(vib)   ...       0.10 
freq.     637.17  E(vib)   ...       0.09 
freq.     713.38  E(vib)   ...       0.07 
freq.     722.71  E(vib)   ...       0.07 
freq.     828.25  E(vib)   ...       0.04 
freq.     897.67  E(vib)   ...       0.03 
freq.     924.58  E(vib)   ...       0.03 
freq.     971.31  E(vib)   ...       0.03 
freq.     987.56  E(vib)   ...       0.02 
freq.     992.50  E(vib)   ...       0.02 
freq.    1036.16  E(vib)   ...       0.02 
freq.    1070.88  E(vib)   ...       0.02 
freq.    1085.21  E(vib)   ...       0.02 
freq.    1172.81  E(vib)   ...       0.01 
freq.    1309.89  E(vib)   ...       0.01 
freq.    1329.40  E(vib)   ...       0.01 
freq.    1347.31  E(vib)   ...       0.01 
freq.    1435.14  E(vib)   ...       0.00 
freq.    1470.69  E(vib)   ...       0.00 
freq.    1483.00  E(vib)   ...       0.00 
freq.    1495.16  E(vib)   ...       0.00 
freq.    1531.71  E(vib)   ...       0.00 
freq.    1746.17  E(vib)   ...       0.00 
freq.    1778.36  E(vib)   ...       0.00 
freq.    1796.65  E(vib)   ...       0.00 
freq.    3081.09  E(vib)   ...       0.00 
freq.    3135.89  E(vib)   ...       0.00 
freq.    3222.76  E(vib)   ...       0.00 
freq.    3240.67  E(vib)   ...       0.00 
freq.    3270.10  E(vib)   ...       0.00 
freq.    3328.58  E(vib)   ...       0.00 
freq.    3381.26  E(vib)   ...       0.00 

------------
INNER ENERGY
------------

The inner energy is: U= E(el) + E(ZPE) + E(vib) + E(rot) + E(trans)
    E(el)   - is the total energy from the electronic structure calculation
              = E(kin-el) + E(nuc-el) + E(el-el) + E(nuc-nuc)
    E(ZPE)  - the the zero temperature vibrational energy from the frequency calculation
    E(vib)  - the the finite temperature correction to E(ZPE) due to population
              of excited vibrational states
    E(rot)  - is the rotational thermal energy
    E(trans)- is the translational thermal energy

Summary of contributions to the inner energy U:
Electronic energy                ...    -90.65453355 Eh
Zero point energy                ...      0.12438711 Eh      78.05 kcal/mol
Thermal vibrational correction   ...      0.00617387 Eh       3.87 kcal/mol
Thermal rotational correction    ...      0.00141627 Eh       0.89 kcal/mol
Thermal translational correction ...      0.00141627 Eh       0.89 kcal/mol
-----------------------------------------------------------------------
Total thermal energy                    -90.52114003 Eh


Summary of corrections to the electronic energy:
(perhaps to be used in another calculation)
Total thermal correction                  0.00900641 Eh       5.65 kcal/mol
Non-thermal (ZPE) correction              0.12438711 Eh      78.05 kcal/mol
-----------------------------------------------------------------------
Total correction                          0.13339352 Eh      83.71 kcal/mol


--------
ENTHALPY
--------

The enthalpy is H = U + kB*T
                kB is Boltzmann's constant
Total thermal energy              ...    -90.52114003 Eh 
Thermal Enthalpy correction       ...      0.00094421 Eh       0.59 kcal/mol
-----------------------------------------------------------------------
Total Enthalpy                    ...    -90.52019582 Eh


Note: Only C1 symmetry has been detected, increase convergence thresholds 
      if your molecule has a higher symmetry. Symmetry factor of 1.0 is   
      used for the rotational entropy correction. 
 

Note: Rotational entropy computed according to Herzberg 
Infrared and Raman Spectra, Chapter V,1, Van Nostrand Reinhold, 1945 
Point Group:  C1, Symmetry Number:   1  
Rotational constants in cm-1:     0.117898     0.033076     0.025955 

Vibrational entropy computed according to the QRRHO of S. Grimme
Chem.Eur.J. 2012 18 9955 using a reference frequency of 100.0 cm-1


-------
ENTROPY
-------

The entropy contributions are T*S = T*(S(el)+S(vib)+S(rot)+S(trans))
     S(el)   - electronic entropy
     S(vib)  - vibrational entropy
     S(rot)  - rotational entropy
     S(trans)- translational entropy
The entropies will be listed as multiplied by the temperature to get
units of energy

Electronic entropy                ...      0.00000000 Eh      0.00 kcal/mol
Vibrational entropy               ...      0.01093912 Eh      6.86 kcal/mol
Rotational entropy                ...      0.01385322 Eh      8.69 kcal/mol
Translational entropy             ...      0.01923315 Eh     12.07 kcal/mol
-----------------------------------------------------------------------
Final entropy term                ...      0.04402548 Eh     27.63 kcal/mol

In case the symmetry of your molecule has not been determined correctly
or in case you have a reason to use a different symmetry number we print 
out the resulting rotational entropy values for sn=1,12:

 non-linear molecules -----------------------------------
|  sn= 1 | S(rot)=       0.01385322 Eh      8.69 kcal/mol|
|  sn= 2 | S(rot)=       0.01319877 Eh      8.28 kcal/mol|
|  sn= 3 | S(rot)=       0.01281593 Eh      8.04 kcal/mol|
|  sn= 4 | S(rot)=       0.01254431 Eh      7.87 kcal/mol|
|  sn= 5 | S(rot)=       0.01233362 Eh      7.74 kcal/mol|
|  sn= 6 | S(rot)=       0.01216148 Eh      7.63 kcal/mol|
|  sn= 7 | S(rot)=       0.01201593 Eh      7.54 kcal/mol|
|  sn= 8 | S(rot)=       0.01188985 Eh      7.46 kcal/mol|
|  sn= 9 | S(rot)=       0.01177864 Eh      7.39 kcal/mol|
|  sn=10 | S(rot)=       0.01167917 Eh      7.33 kcal/mol|
|  sn=11 | S(rot)=       0.01158918 Eh      7.27 kcal/mol|
|  sn=12 | S(rot)=       0.01150702 Eh      7.22 kcal/mol|
 linear molecules ---------------------------------------
|  Dinfh | S(rot)=       0.00877337 Eh      5.51 kcal/mol|
|  Cinfv | S(rot)=       0.00942783 Eh      5.92 kcal/mol|
 --------------------------------------------------------


-------------------
GIBBS FREE ENERGY
-------------------

The Gibbs free energy is G = H - T*S

Total enthalpy                    ...    -90.52019582 Eh 
Total entropy correction          ...     -0.04402548 Eh    -27.63 kcal/mol
-----------------------------------------------------------------------
Final Gibbs free energy         ...    -90.56422130 Eh

For completeness - the Gibbs free energy minus the electronic energy
G-E(el)                           ...      0.09031224 Eh     56.67 kcal/mol


Maximum memory used throughout the entire PROP-calculation: 68.1 MB

--------------------------------
SUGGESTED CITATIONS FOR THIS RUN
--------------------------------

Below you find a list of papers that are relevant to this ORCA run
We neither can nor want to force you to cite these papers, but we appreciate if you do
You receive ORCA, which is the product of decades of hard work by many enthusiastic individuals, for free
The only thing we kindly ask in return is that you cite our papers,
We deeply appreciate it, if you show your appreciation for ORCA by not just citing the generic ORCA reference.

Please note that relegating all ORCA citations to the supporting information does *not* help us.
SI sections are not indexed - citations you put there will not count into any citation statistics
But we need these citations in order to attract the funding resources that allow us to do what we are doing

Therefore, if you are a happy ORCA user, please consider citing a few of the papers listed below in the main body of your paper

In addition to the list printed below, the program has created the file reactant.bibtex that contains the list in bibtex format
You can import this file easily into all common literature databanks and citation aid programs

It goes without saying that in many instances, there are alternative algorithms to achieve similar
results as the ones you have gotten from ORCA. It is, of course, also the case that in some instances
ORCA just re-implements algorithms worked out by others. We are fully aware of that and we are also
fully appreciative of our colleagues work. Hence this citation list should not be read as indicating
that the listed papers, which are focused on our own work, are the only ones worth citing. It simply
meant to make it easier for users to cite ORCA specific papers. It is not a substitute for doing your
own literature research and citing the relevant literature in a scientifically appropriate manner.

List of essential papers. We consider these as the minimum necessary citations

  1. Mueller, M.; Hansen, A.; Grimme, S.
     wB97X-3c: A composite range-separated hybrid DFT method with a molecule-optimized polarized valence double-zeta basis set
     J. Chem. Phys. 2023 158 , 014103
     doi.org/10.1063/5.0133026
  2. Neese, F.
     Software update: the ORCA program system, version 6.0
     WIRES Comput. Molec. Sci. 2025 15(1), e70019
     doi.org/10.1002/wcms.70019

List of papers to cite with high priority. The work reported in these papers was absolutely
necessary for this run to complete.
Our perspective: the developers of density functionals and basis sets usually get cited in chemistry papers
Good! But without the algorithms to do something with them, the functionals or basis sets would not do anything.
Hence, in our opinion, the algorithm design and method developments papers are equally worthy of getting cited

  1. Neese, F.
     An improvement of the resolution of the identity approximation for the formation of the Coulomb matrix
     J. Comp. Chem. 2003 24(14), 1740-1747
     doi.org/10.1002/jcc.10318
  2. Neese, F.; Wennmohs, F.; Hansen, A.; Becker, U.
     Efficient, approximate and parallel Hartree-Fock and hybrid DFT calculations. A 'chain-of-spheres' algorithm for the Hartree-Fock exchange
     Chem. Phys. 2009 356(1-3), 98-109
     doi.org/10.1016/j.chemphys.2008.10.036
  3. Bykov, D.; Petrenko, T.; Izsak, R.; Kossmann, S.; Becker, U.; Valeev, E.; Neese, F.
     Efficient implementation of the analytic second derivatives of Hartree-Fock and hybrid DFT energies: a detailed analysis of different approximations
     Molec. Phys. 2015 113 , 1961-1977
     doi.org/10.1080/00268976.2015.1025114
  4. Caldeweyher, E.; Bannwarth, C.; Grimme, S.
     Extension of the D3 dispersion coefficient model
     J. Chem. Phys. 2017 147 , 034112
     doi.org/10.1063/1.4993215
  5. Caldeweyher, E.; Ehlert, S.; Hansen, A.; Neugebauer, H.; Spicher, S.; Bannwarth, C.; Grimme, S.
     A generally applicable atomic-charge dependent London dispersion correction
     J. Chem. Phys. 2019 150 , 154122
     doi.org/10.1063/1.5090222
  6. Helmich-Paris, B.; de Souza, B.; Neese, F.; Izsák, R.
     An improved chain of spheres for exchange algorithm
     J. Chem. Phys. 2021 155(10), 104109
     doi.org/10.1063/5.0058766
  7. Neese, F.
     The SHARK Integral Generation and Digestion System
     J. Comp. Chem. 2022 44(3), 381
     doi.org/10.1002/jcc.26942

List of suggested additional citations. These are papers that are important in the 'surrounding' of 
of this run, or papers that preceded the highly important papers. If you like your results we are grateful for a citation.

  1. Izsak, R.; Neese, F.
     An overlap fitted chain of spheres exchange method
     J. Chem. Phys. 2011 135 , 144105
     doi.org/10.1063/1.3646921
  2. Izsak, R.; Hansen, A.; Neese, F.
     The resolution of identity and chain of spheres approximations for the LPNO-CCSD singles Fock term
     Molec. Phys. 2012 110 , 2413-2417
     doi.org/10.1080/00268976.2012.687466
  3. Neese, F.
     The ORCA program system
     WIRES Comput. Molec. Sci. 2012 2(1), 73-78
     doi.org/10.1002/wcms.81
  4. Izsak, R.; Neese, F.; Klopper, W.
     Robust fitting techniques in the chain of spheres approximation to the Fock exchange: The role of the complementary space
     J. Chem. Phys. 2013 139 , 
     doi.org/10.1063/1.4819264
  5. Neese, F.
     Software update: the ORCA program system, version 4.0
     WIRES Comput. Molec. Sci. 2018 8(1), 1-6
     doi.org/10.1002/wcms.1327
  6. Neese, F.; Wennmohs, F.; Becker, U.; Riplinger, C.
     The ORCA quantum chemistry program package
     J. Chem. Phys. 2020 152(22), 224108
     doi.org/10.1063/5.0004608
  7. Neese, F.
     Software update: The ORCA program system—Version 5.0
     WIRES Comput. Molec. Sci. 2022 12(1), e1606
     doi.org/10.1002/wcms.1606

List of optional additional citations

  1. Neese, F.
     Approximate second-order SCF convergence for spin unrestricted wavefunctions
     Chem. Phys. Lett. 2000 325(1-3), 93-98
     doi.org/10.1016/s0009-2614(00)00662-x

Timings for individual modules:

Sum of individual times          ...      456.791 sec (=   7.613 min)
Startup calculation              ...       11.001 sec (=   0.183 min)   2.4 %
SCF iterations                   ...      204.501 sec (=   3.408 min)  44.8 %
Property integrals               ...       30.725 sec (=   0.512 min)   6.7 %
SCF Response                     ...       20.303 sec (=   0.338 min)   4.4 %
Property calculations            ...      111.636 sec (=   1.861 min)  24.4 %
SCF Gradient evaluation          ...       78.586 sec (=   1.310 min)  17.2 %
Geometry relaxation              ...        0.040 sec (=   0.001 min)   0.0 %
                             ****ORCA TERMINATED NORMALLY****
TOTAL RUN TIME: 0 days 0 hours 7 minutes 40 seconds 6 msec
