
                                 *****************
                                 * O   R   C   A *
                                 *****************

                                            #,                                       
                                            ###                                      
                                            ####                                     
                                            #####                                    
                                            ######                                   
                                           ########,                                 
                                     ,,################,,,,,                         
                               ,,#################################,,                 
                          ,,##########################################,,             
                       ,#########################################, ''#####,          
                    ,#############################################,,   '####,        
                  ,##################################################,,,,####,       
                ,###########''''           ''''###############################       
              ,#####''   ,,,,##########,,,,          '''####'''          '####       
            ,##' ,,,,###########################,,,                        '##       
           ' ,,###''''                  '''############,,,                           
         ,,##''                                '''############,,,,        ,,,,,,###''
      ,#''                                            '''#######################'''  
     '                                                          ''''####''''         
             ,#######,   #######,   ,#######,      ##                                
            ,#'     '#,  ##    ##  ,#'     '#,    #''#        ,####,    ,#,          
            ##       ##  ##   ,#'  ##            #'  '#       #'       ,# #          
            ##       ##  #######   ##           ,######,      #####,      #          
            '#,     ,#'  ##    ##  '#,     ,#' ,#      #,     #,   #      #          
             '#######'   ##     ##  '#######'  #'      '#     '####' #    #          



                #########################################################
                #                        -***-                          #
                #          Department of theory and spectroscopy        #
                #                                                       #
                #                      Frank Neese                      #
                #                                                       #
                #     Directorship, Architecture, Infrastructure        #
                #                    SHARK, DRIVERS                     #
                #        Core code/Algorithms in most modules           #
                #                                                       #
                #        Max Planck Institute fuer Kohlenforschung      #
                #                Kaiser Wilhelm Platz 1                 #
                #                 D-45470 Muelheim/Ruhr                 #
                #                      Germany                          #
                #                                                       #
                #                  All rights reserved                  #
                #                        -***-                          #
                #########################################################


                         Program Version 6.1.1  -  RELEASE   -
                                (GIT: $487d211c$)
                          ($2025-11-21 10:33:24 +0100$)


 With contributions from (in alphabetic order):
[Max-Planck-Institut fuer Kohlenforschung]                               
  Daniel Aravena         : Magnetic Suceptibility                        
  Michael Atanasov       : Ab Initio Ligand Field Theory (pilot matlab implementation)
  Alexander A. Auer      : GIAO ZORA, VPT2 properties, NMR spectrum      
  Ute Becker             : All parallelization in ORCA, NUMFREQ, NUMCALC 
  Giovanni Bistoni       : ED, misc. LED, open-shell LED, HFLD           
  Dmytro Bykov           : pre 5.0 version of the SCF Hessian            
  Marcos Casanova-Páez   : Triplet and SCS-CIS(D). UHF-(DLPNO)-IP/EA/STEOM-CCSD. UHF-CVS-IP/STEOM-CCSD   
  Vijay G. Chilkuri      : MRCI spin determinant printing, contributions to CSF-ICE 
  Pauline Colinet        : FMM embedding                                 
  Dipayan Datta          : RHF DLPNO-CCSD density                        
  Achintya Kumar Dutta   : EOM-CC, STEOM-CC                              
  Nicolas Foglia         : Exact transition moments, OPA infrastructure, MCD improvements    
  Dmitry Ganyushin       : Spin-Orbit,Spin-Spin,Magnetic field MRCI      
  Miquel Garcia-Rates    : C-PCM and meta-GGA Hessian, CCSD/C-PCM, Gaussian charge scheme 
  Tiago L. C. Gouveia    : GS-ROHF, GS-ROCIS                             
  Yang Guo               : DLPNO-NEVPT2, F12-NEVPT2, CIM, IAO-localization        
  Andreas Hansen         : Spin unrestricted coupled pair/coupled cluster methods 
  Ingolf Harden          : AUTO-CI MPn and infrastructure                
  Benjamin Helmich-Paris : MC-RPA, TRAH-(SCF,CASSCF), AVAS, COSX integrals, SCF dyn. polar., MC-PDFT, srDFT 
  Lee Huntington         : MR-EOM, pCC                                   
  Robert Izsak           : Overlap fitted RIJCOSX, COSX-SCS-MP3, EOM     
  Riya Kayal             : Wick's Theorem for AUTO-CI, AUTO-CI UHF-CCSDT 
  Emily Kempfer          : AUTO-CI RHF CISDT and CCSDT, approximate NEVPT4
  Christian Kollmar      : KDIIS, OOCD, Brueckner-CCSD(T), CCSD density, CASPT2, CASPT2-K, improved NEVPT2 
  Axel Koslowski         : Symmetry handling                             
  Simone Kossmann        : meta-GGA functionals, TD-DFT gradient, OOMP2, (MP2 Hessian; deprecated post 5.0) 
  Lucas Lang             : DCDCAS, Hyperfine gauge corrections, ICE-SOC+SSC
  Marvin Lechner         : AUTO-CI (C++ implementation), FIC-MRCC        
  Spencer Leger          : CASSCF response                               
  Dagmar Lenk            : GEPOL surface, SMD, ORCA-2-JSON               
  Dimitrios Liakos       : Extrapolation schemes; Compound Job, Property file
  Dimitrios Manganas     : Further ROCIS development; embedding schemes. LFT, Crystal Embedding 
  Dimitrios Pantazis     : SARC Basis sets                               
  Anastasios Papadopoulos: AUTO-CI, single reference methods and gradients 
  Taras Petrenko         : pre 6.0 DFT Hessian and TD-DFT gradient,  ECA, NRVS 
  Petra Pikulova         : Analytic Raman intensities                    
  Peter Pinski           : DLPNO-MP2, DLPNO-MP2 Gradient                 
  Shashank Vittal Rao    : ES-AILFT, MagRelax                            
  Christoph Reimann      : Effective Core Potentials                     
  Marius Retegan         : Local ZFS, SOC                                
  Christoph Riplinger    : Optimizer, TS searches, QM/MM, DLPNO-CCSD(T), (RO)-DLPNO pert. Triples 
  Michael Roemelt        : Original ROCIS implementation, recursive CI coupling coefficients
  Masaaki Saitow         : Open-shell DLPNO-CCSD energy and density      
  Barbara Sandhoefer     : DKH picture change effects                    
  Yorick L. A. Schmerwitz: GMF and freeze-and-release deltaSCF, NEB S-IDPP initial path                    
  Kantharuban Sivalingam : CASSCF convergence/infrastructure, NEVPT2, NEVPT3, NEVPT4(SD), FIC-MRCI and CEPA variants
  Bernardo de Souza      : ESD, SOC TD-DFT                               
  Georgi L. Stoychev     : AutoAux, RI-MP2 NMR, DLPNO-MP2 response, X2C  
  Van Anh Tran           : RI-MP2 g-tensors                              
  Willem Van den Heuvel  : Paramagnetic NMR                              
  Zikuan Wang            : NOTCH, Electric field optimization            
  Frank Wennmohs         : Technical directorship and infrastructure     
  Hang Xu                : AUTO-CI-Response properties                   
                                                                         
[FACCTs GmbH]                                                            
  Markus Bursch, Nicolas Foglia, Miquel Garcia-Rates, Ingolf Harden, Hagen Neugebauer, Anastasios Papadopoulos, 
  Christoph Riplinger, Bernardo de Souza, Georgi L. Stoychev                                                    
                                                                 
  APM, various basis sets, CI-OPT, improved COSX, DLPNO-Multilevel,           
  DOCKER, DRACO, updates on ESD, Fragmentator, GOAT, IRC, LR-CPCM, L-BFGS, MBIS, meta-GGA TD-DFT gradient, ML-optimized integration grids, 
  MM, NACMEs, nearIR, NEB, NEB-TS, NL-DFT gradient (VV10), 2- and 3-layer-ONIOM, interface openCOSMO-RS, QMMM,   
  Crystal-QMMM, RESP, rigid body optimization, SF, symmetry and pop. for TD-DFT, various functionals, SOLVATOR                                   
                                                                         
[Other institutions]                                                     
  V. Asgeirsson          : NEB                                           
  Christoph Bannwarth    : sTDA-DFT, sTD-DFT, PBEh-3c, B97-3c, D3        
  Giovanni Bistoni       : ETS/NOCV, ADLD/ADEX, COVALED                  
  Martin Brehm           : Molecular dynamics                            
  Ronald Cardenas        : ETS/NOCV                                      
  Martina Colucci        : COVALED                                       
  Sebastian Ehlert       : rSCAN, r2SCAN, r2SCAN-3c, D4, dhf basis sets  
  Marvin Friede          : D4 for Fr, Ra, Ac-Lr                          
  Lars Goerigk           : TD-DFT with DH, B97 family of functionals     
  Stefan Grimme          : VdW corrections, initial TS optimization, DFT functionals, gCP, sTDA/sTD-DF 
  Waldemar Hujo          : DFT-NL                                        
  H. Jonsson             : NEB                                           
  Holger Kruse           : gCP                                           
  Marcel Mueller         : wB97X-3c, vDZP basis set                      
  Hagen Neugebauer       : wr2SCAN, Native XTB                           
  Gianluca Regni         : ADLD/ADEX                                     
  Tobias Risthaus        : pre 6.0 range-separated hybrid DFT and stability analysis
  Lukas Wittmann         : regularized MP2, r2SCAN double-hybrids, wr2SCAN        
                                                                         
We gratefully acknowledge several colleagues who have allowed us to      
interface, adapt or use parts of their codes:                            
  Ed Valeev, F. Pavosevic, A. Kumar             : LibInt (2-el integral package), F12 methods 
  Garnet Chan, S. Sharma, J. Yang, R. Olivares  : DMRG                   
  Ulf Ekstrom                                   : XCFun DFT Library      
  Mihaly Kallay                                 : mrcc  (arbitrary order and MRCC methods)
  Frank Weinhold                                : gennbo (NPA and NBO analysis)           
  Simon Mueller                                 : openCOSMO-RS                            
  Christopher J. Cramer and Donald G. Truhlar   : smd solvation model                     
  S Lehtola, MJT Oliveira, MAL Marques          : LibXC Library                           
  Liviu Ungur et al                             : ANISO software                          


 Your calculation uses the libint2 library for the computation of 2-el integrals
 For citations please refer to: http://libint.valeyev.net

 Your ORCA version has been built with support for libXC version: 7.0.0
 For citations please refer to: https://libxc.gitlab.io

 This ORCA versions uses:
   CBLAS   interface :  Fast vector & matrix operations
   LAPACKE interface :  Fast linear algebra routines
   SCALAPACK package :  Parallel linear algebra routines
   Shared memory     :  Shared parallel matrices
   BLAS/LAPACK       :  OpenBLAS 0.3.29  USE64BITINT DYNAMIC_ARCH NO_AFFINITY SkylakeX SINGLE_THREADED
        Core in use  :  SkylakeX
   Copyright (c) 2011-2014, The OpenBLAS Project


  ***********************************
  * Starting time: Sat May 23 08:56:23 2026
  * Host name:     n040.hpc
  * Process ID:    1527499
  * Working dir.:  /gpfs/home1/yeseo1ee/projects/v1-claisen-asr/runs/no2/orca
  ***********************************

NOTE: MaxCore=4000 MB was set to SCF,MP2,MDCI,CIPSI,MRCI,RASCI and CIS
      => If you want to overwrite this, your respective input block should be placed after the MaxCore statement


***************************************
The coordinates will be read from file: ts_guess.xyz
***************************************


Your calculation utilizes the atom-pairwise dispersion correction
based on EEQ partial charges (D4)


================================================================================

cite the ECPs for C  [vDZP-ECP], N  [vDZP-ECP], O  [vDZP-ECP] as follows:
   B-Ne (ecp-2-mwb), Al-Ar (ecp-10-mwb), Ga-Kr (ecp-28-mwb), Y-Cd (ecp-28-mwb), In-Xe (ecp-46-mwb):
     A. Bergner, M. Dolg, W. Küchle, H. Stoll, and H. Preuß, Mol. Phys. 80, 1431 (1993)., T. Leininger, A. Berning, A. Nicklass, H. Stoll, H.-J. Werner, and H.-J.Flad, Chem. Phys. 217, 19 (1997).
   Na-Mg, K-Ca, Rb-Sr, Cs-Ba (CRENBL):
     L. Fernandez Pacios and P. A. Christiansen, J. Chem. Phys. 82, 2664 (1985)., M. M. Hurley, L. F. Pacios, P. A. Christiansen, R. B. Ross, and W. C. Ermler, J. Chem. Phys. 84, 6840 (1986)., L. A. LaJohn, P. A. Christiansen, R. B. Ross, T. Atashroo, and W. C. Ermler, J. Chem. Phys. 87, 2812 (1987)., R. B. Ross, J. M. Powers, T. Atashroo, W. C. Ermler, L. A. LaJohn, and P. A. Christiansen, J. Chem. Phys. 93, 6654 (1990). 
   Sc-Zn (ecp-10-mdf):
     M. Dolg, U. Wedig, H. Stoll, and H. Preuss, J. Chem. Phys. 86, 866 (1986). 
   Y-Cd (ecp-28-mwb), Hf-Hg (ecp-60-mwb):
     D. Andrae, U. Häußermann, M. Dolg, H. Stoll, and H. Preuß, Theor. Chim. Acta 77, 123 (1990). 
   La (ecp-46-mwb):
     M. Dolg, H. Stoll, and H. Preuss, J. Chem. Phys. 90, 1730 (1989)., M. Dolg, H. Stoll, and H. Preuss, Theor. Chim. Acta 85, 441 (1993).
   Ce-Lu (SBKJC-ecp):
     T. R. Cundari and W. J. Stevens, J. Chem. Phys. 98, 5555 (1993).
   Tl-Rn (ecp-78-mwb):
     W. Küchle, M. Dolg, H. Stoll, and H. Preuss, Mol. Phys. 74, 1245 (1991).

ECP parameters for C  [vDZP-ECP], N  [vDZP-ECP], O  [vDZP-ECP] have been obtained from:
MM, AH, SG, J. Chem. Phys. 158, 014103 (2023), 10.1063/5.0133026

----- Orbital basis set information -----
Your calculation utilizes the basis: vDZP
   Marcel Mueller, Andreas Hansen, Stefan Grimme 
   J. Chem. Phys. 158, 014103 (2023). DOI: 10.1063/5.0133026

----- AuxJ basis set information -----
Your calculation utilizes the auxiliary basis: def2/J
   H-Rn: F. Weigend, Phys. Chem. Chem. Phys. 8, 1057 (2006).
   Fr-Lr: K. Eichkorn, F. Weigend, O. Treutler, R. Ahlrichs; Theor. Chem. Acc. 97, 119 (1997).

================================================================================
                                        WARNINGS
                       Please study these warnings very carefully!
================================================================================

WARNING: Frozen-Core approximation turned on, but there are no core electrons.
  ===> : Turning off frozen-core approximation

WARNING: Old DensityContainer found on disk!
         Will remove this file - 
         If you want to keep old densities, please start your calculation with a different basename. 


WARNING: Geometry Optimization
  ===> : Switching off AutoStart
         For restart on a previous wavefunction, please use MOREAD

================================================================================
                                       INPUT FILE
================================================================================
NAME = ts.inp
|  1> ! wB97X-3c OptTS Freq TightSCF
|  2> %pal nprocs 8 end
|  3> %maxcore 4000
|  4> %geom
|  5>   Calc_Hess true
|  6>   Recalc_Hess 3
|  7>   TS_Mode {B 0 8} end
|  8>   MaxIter 200
|  9> end
| 10> * xyzfile 0 1 ts_guess.xyz
| 11> 
| 12>                          ****END OF INPUT****
================================================================================

                       *****************************
                       * Geometry Optimization Run *
                       *****************************

Geometry optimization settings:
Update method            Update   .... Bofill
Choice of coordinates    CoordSys .... (2022) Redundant Internals
Initial Hessian          InHess   .... Almloef's Model
Max. no of cycles        MaxIter  .... 200

Convergence Tolerances:
Energy Change            TolE     ....  5.0000e-06 Eh
Max. Gradient            TolMAXG  ....  3.0000e-04 Eh/bohr
RMS Gradient             TolRMSG  ....  1.0000e-04 Eh/bohr
Max. Displacement        TolMAXD  ....  4.0000e-03 bohr
RMS Displacement         TolRMSD  ....  2.0000e-03 bohr
Strict Convergence                .... False

------------------------------------------------------------------------------
                        ORCA OPTIMIZATION COORDINATE SETUP
------------------------------------------------------------------------------

The optimization will be done in redundant internal coordinates (2022)
Making redundant internal coordinates   ...  (2022 redundants) done
Following TS mode number                ...    internal coordinate number: 16
Evaluating the initial hessian          ...  (Is done on the fly) done
Evaluating the coordinates              ...  done
Calculating the B-matrix                .... done
Calculating the G-matrix                .... done
The number of degrees of freedom        ....   60

    -----------------------------------------------------------------
                    Redundant Internal Coordinates


    -----------------------------------------------------------------
         Definition                    Initial Value    d2E/dq (diagonal element)
    -----------------------------------------------------------------
      1. B(C   1,C   0)                  1.3502         0.000000   
      2. B(N   2,C   1)                  1.4792         0.000000   
      3. B(O   3,N   2)                  1.2166         0.000000   
      4. B(O   4,N   2)                  1.2131         0.000000   
      5. B(O   5,C   1)                  1.2985         0.000000   
      6. B(C   6,O   5)                  1.5594         0.000000   
      7. B(C   7,C   6)                  1.4465         0.000000   
      8. B(C   8,C   7)                  1.3541         0.000000   
      9. B(H   9,C   0)                  1.0797         0.000000   
     10. B(H  10,C   0)                  1.0761         0.000000   
     11. B(H  11,C   6)                  1.0857         0.000000   
     12. B(H  12,C   6)                  1.0822         0.000000   
     13. B(H  13,C   7)                  1.0830         0.000000   
     14. B(H  14,C   8)                  1.0820         0.000000   
     15. B(H  15,C   8)                  1.0833         0.000000   
     16. B(C   8,C   0)                  2.1000         0.000000   
     17. A(H   9,C   0,H  10)          117.8150         0.000000   
     18. A(C   1,C   0,H   9)          119.6845         0.000000   
     19. A(C   1,C   0,H  10)          118.1319         0.000000   
     20. A(N   2,C   1,O   5)          115.2353         0.000000   
     21. A(C   0,C   1,O   5)          123.0311         0.000000   
     22. A(C   0,C   1,N   2)          117.4157         0.000000   
     23. A(C   1,N   2,O   4)          117.2454         0.000000   
     24. A(C   1,N   2,O   3)          117.7242         0.000000   
     25. A(O   3,N   2,O   4)          125.0245         0.000000   
     26. A(C   1,O   5,C   6)          112.2341         0.000000   
     27. A(C   7,C   6,H  11)          115.9470         0.000000   
     28. A(O   5,C   6,H  11)          104.2131         0.000000   
     29. A(H  11,C   6,H  12)          111.0952         0.000000   
     30. A(O   5,C   6,H  12)          102.6865         0.000000   
     31. A(C   7,C   6,H  12)          115.7518         0.000000   
     32. A(O   5,C   6,C   7)          105.3010         0.000000   
     33. A(C   8,C   7,H  13)          119.2734         0.000000   
     34. A(C   6,C   7,H  13)          117.9365         0.000000   
     35. A(C   6,C   7,C   8)          118.6873         0.000000   
     36. A(H  14,C   8,H  15)          114.6994         0.000000   
     37. A(C   7,C   8,H  15)          120.2252         0.000000   
     38. A(C   7,C   8,H  14)          121.1100         0.000000   
     39. D(N   2,C   1,C   0,H   9)    -17.2696         0.000000   
     40. D(O   5,C   1,C   0,H   9)   -172.7909         0.000000   
     41. D(N   2,C   1,C   0,H  10)   -173.3100         0.000000   
     42. D(O   5,C   1,C   0,H  10)     31.1687         0.000000   
     43. D(O   3,N   2,C   1,O   5)   -178.6578         0.000000   
     44. D(O   4,N   2,C   1,C   0)   -155.2385         0.000000   
     45. D(O   3,N   2,C   1,C   0)     23.9261         0.000000   
     46. D(O   4,N   2,C   1,O   5)      2.1776         0.000000   
     47. D(C   6,O   5,C   1,N   2)    -84.0393         0.000000   
     48. D(C   6,O   5,C   1,C   0)     71.9677         0.000000   
     49. D(H  12,C   6,O   5,C   1)   -176.1688         0.000000   
     50. D(H  11,C   6,O   5,C   1)     67.8810         0.000000   
     51. D(C   7,C   6,O   5,C   1)    -54.6149         0.000000   
     52. D(C   8,C   7,C   6,H  11)    -48.3617         0.000000   
     53. D(C   8,C   7,C   6,O   5)     66.2339         0.000000   
     54. D(H  13,C   7,C   6,H  11)    154.5522         0.000000   
     55. D(H  13,C   7,C   6,O   5)    -90.8521         0.000000   
     56. D(C   8,C   7,C   6,H  12)    178.8632         0.000000   
     57. D(H  15,C   8,C   7,H  13)    -13.0549         0.000000   
     58. D(H  15,C   8,C   7,C   6)   -169.8304         0.000000   
     59. D(H  14,C   8,C   7,H  13)   -169.4639         0.000000   
     60. D(H  14,C   8,C   7,C   6)     33.7606         0.000000   
    -----------------------------------------------------------------

Number of atoms                         .... 16
Number of degrees of freedom            .... 60


         *************************************************************
         *                GEOMETRY OPTIMIZATION CYCLE   1            *
         *************************************************************
---------------------------------
CARTESIAN COORDINATES (ANGSTROEM)
---------------------------------
  C     -1.178345    0.116759   -0.897864
  C     -1.075341   -0.312627    0.378057
  N     -1.370238    0.662306    1.450668
  O     -2.089423    1.604679    1.176925
  O     -0.861210    0.466695    2.534265
  O     -0.325902   -1.312998    0.729918
  C      1.192425   -0.962827    0.669143
  C      1.419815   -0.482375   -0.676204
  C      0.838501    0.679367   -1.058502
  H     -1.723474    1.023163   -1.114624
  H     -1.074369   -0.607530   -1.686915
  H      1.330159   -0.235185    1.463042
  H      1.663703   -1.904701    0.917989
  H      1.707634   -1.203945   -1.430794
  H      0.692805    1.489280   -0.355987
  H      0.853260    0.979937   -2.099115

----------------------------
CARTESIAN COORDINATES (A.U.)
----------------------------
  NO LB      ZA    FRAG     MASS         X           Y           Z
   0 C     4.0000*   0    12.011   -2.226749    0.220642   -1.696716
   1 C     4.0000*   0    12.011   -2.032100   -0.590780    0.714425
   2 N     5.0000*   0    14.007   -2.589374    1.251578    2.741364
   3 O     6.0000*   0    15.999   -3.948438    3.032405    2.224066
   4 O     6.0000*   0    15.999   -1.627452    0.881926    4.789066
   5 O     6.0000*   0    15.999   -0.615865   -2.481207    1.379345
   6 C     4.0000*   0    12.011    2.253357   -1.819479    1.264496
   7 C     4.0000*   0    12.011    2.683062   -0.911556   -1.277841
   8 C     4.0000*   0    12.011    1.584538    1.283817   -2.000279
   9 H     1.0000    0     1.008   -3.256894    1.933498   -2.106333
  10 H     1.0000    0     1.008   -2.030262   -1.148064   -3.187808
  11 H     1.0000    0     1.008    2.513636   -0.444435    2.764750
  12 H     1.0000    0     1.008    3.143944   -3.599364    1.734748
  13 H     1.0000    0     1.008    3.226961   -2.275126   -2.703809
  14 H     1.0000    0     1.008    1.309212    2.814332   -0.672718
  15 H     1.0000    0     1.008    1.612427    1.851813   -3.966753
* core charge reduced due to ECP

--------------------------------
INTERNAL COORDINATES (ANGSTROEM)
--------------------------------
 C      0   0   0     0.000000000000     0.00000000     0.00000000
 C      1   0   0     1.350168929814     0.00000000     0.00000000
 N      2   1   0     1.479172854589   117.41574246     0.00000000
 O      3   2   1     1.216646837285   117.72421591    23.92606992
 O      3   2   1     1.213076977090   117.24541333   204.76146833
 O      2   1   3     1.298540570752   123.03114184   204.47868957
 C      6   2   1     1.559368577718   112.23414413    71.96770250
 C      7   6   2     1.446547290208   105.30101330   305.38510750
 C      8   7   6     1.354149244782   118.68727456    66.23391267
 H      1   2   3     1.079684848518   119.68452296   342.73040039
 H      1   2   3     1.076107426263   118.13185296   186.69000353
 H      7   6   2     1.085684300886   104.21305071    67.88095013
 H      7   6   2     1.082199209897   102.68650181   183.83123943
 H      8   7   6     1.083009434766   117.93648841   269.14787280
 H      9   8   7     1.081995625934   121.11000142    33.76055687
 H      9   8   7     1.083252422116   120.22519709   190.16956498

---------------------------
INTERNAL COORDINATES (A.U.)
---------------------------
 C      0   0   0     0.000000000000     0.00000000     0.00000000
 C      1   0   0     2.551449511878     0.00000000     0.00000000
 N      2   1   0     2.795231599904   117.41574246     0.00000000
 O      3   2   1     2.299129324171   117.72421591    23.92606992
 O      3   2   1     2.292383266066   117.24541333   204.76146833
 O      2   1   3     2.453886052506   123.03114184   204.47868957
 C      6   2   1     2.946779553730   112.23414413    71.96770250
 C      7   6   2     2.733578218259   105.30101330   305.38510750
 C      8   7   6     2.558971217095   118.68727456    66.23391267
 H      1   2   3     2.040308674643   119.68452296   342.73040039
 H      1   2   3     2.033548326317   118.13185296   186.69000353
 H      7   6   2     2.051645996573   104.21305071    67.88095013
 H      7   6   2     2.045060129052   102.68650181   183.83123943
 H      8   7   6     2.046591232161   117.93648841   269.14787280
 H      9   8   7     2.044675411116   121.11000142    33.76055687
 H      9   8   7     2.047050411705   120.22519709   190.16956498

---------------------
BASIS SET INFORMATION
---------------------
There are 4 groups of distinct atoms

 Group   1 Type C   : 6s6p2d contracted to 2s2p1d pattern {42/42/2}
 Group   2 Type N   : 6s6p2d contracted to 2s2p1d pattern {42/42/2}
 Group   3 Type O   : 6s6p2d contracted to 2s2p1d pattern {42/42/2}
 Group   4 Type H   : 8s2p contracted to 2s1p pattern {53/2}

Atom   0C    basis set group =>   1
Atom   1C    basis set group =>   1
Atom   2N    basis set group =>   2
Atom   3O    basis set group =>   3
Atom   4O    basis set group =>   3
Atom   5O    basis set group =>   3
Atom   6C    basis set group =>   1
Atom   7C    basis set group =>   1
Atom   8C    basis set group =>   1
Atom   9H    basis set group =>   4
Atom  10H    basis set group =>   4
Atom  11H    basis set group =>   4
Atom  12H    basis set group =>   4
Atom  13H    basis set group =>   4
Atom  14H    basis set group =>   4
Atom  15H    basis set group =>   4
---------------------------------
AUXILIARY/J BASIS SET INFORMATION
---------------------------------
There are 4 groups of distinct atoms

 Group   1 Type C   : 12s5p4d2f1g contracted to 6s4p3d1f1g pattern {711111/2111/211/2/1}
 Group   2 Type N   : 12s5p4d2f1g contracted to 6s4p3d1f1g pattern {711111/2111/211/2/1}
 Group   3 Type O   : 12s5p4d2f1g contracted to 6s4p3d1f1g pattern {711111/2111/211/2/1}
 Group   4 Type H   : 5s2p1d contracted to 3s1p1d pattern {311/2/1}

Atom   0C    basis set group =>   1
Atom   1C    basis set group =>   1
Atom   2N    basis set group =>   2
Atom   3O    basis set group =>   3
Atom   4O    basis set group =>   3
Atom   5O    basis set group =>   3
Atom   6C    basis set group =>   1
Atom   7C    basis set group =>   1
Atom   8C    basis set group =>   1
Atom   9H    basis set group =>   4
Atom  10H    basis set group =>   4
Atom  11H    basis set group =>   4
Atom  12H    basis set group =>   4
Atom  13H    basis set group =>   4
Atom  14H    basis set group =>   4
Atom  15H    basis set group =>   4
-------------------------
ECP PARAMETER INFORMATION
-------------------------

 Group 1, Type C  ECP vDZP-ECP (replacing 2 core electrons, lmax=3)
 Group 2, Type N  ECP vDZP-ECP (replacing 2 core electrons, lmax=3)
 Group 3, Type O  ECP vDZP-ECP (replacing 2 core electrons, lmax=3)

Atom   0C    ECP group =>   1
Atom   1C    ECP group =>   1
Atom   2N    ECP group =>   2
Atom   3O    ECP group =>   3
Atom   4O    ECP group =>   3
Atom   5O    ECP group =>   3
Atom   6C    ECP group =>   1
Atom   7C    ECP group =>   1
Atom   8C    ECP group =>   1



           ************************************************************
           *        Program running with 8 parallel MPI-processes     *
           *              working on a common directory               *
           ************************************************************
------------------------------------------------------------------------------
                             ORCA STARTUP CALCULATIONS
                           -- RI-GTO INTEGRALS CHOSEN --
------------------------------------------------------------------------------
------------------------------------------------------------------------------
                   ___                                                        
                  /   \      - P O W E R E D   B Y -                         
                 /     \                                                     
                 |  |  |   _    _      __       _____    __    __             
                 |  |  |  | |  | |    /  \     |  _  \  |  |  /  |          
                  \  \/   | |  | |   /    \    | | | |  |  | /  /          
                 / \  \   | |__| |  /  /\  \   | |_| |  |  |/  /          
                |  |  |   |  __  | /  /__\  \  |    /   |      \           
                |  |  |   | |  | | |   __   |  |    \   |  |\   \          
                \     /   | |  | | |  |  |  |  | |\  \  |  | \   \       
                 \___/    |_|  |_| |__|  |__|  |_| \__\ |__|  \__/        
                                                                              
                      - O R C A' S   B I G   F R I E N D -                    
                                      &                                       
                       - I N T E G R A L  F E E D E R -                       
                                                                              
 v1 FN, 2020, v2 2021, v3 2022-2024                                           
------------------------------------------------------------------------------


----------------------
SHARK INTEGRAL PACKAGE
----------------------

Number of atoms                             ...     16
Number of basis functions                   ...    152
Number of shells                            ...     66
Maximum angular momentum                    ...      2
Integral batch strategy                     ... SHARK/LIBINT Hybrid
RI-J (if used) integral strategy            ... SPLIT-RIJ (Revised 2003 algorithm where possible)
Printlevel                                  ...      1
Contraction scheme used                     ... SEGMENTED contraction
Prescreening option                         ... SCHWARTZ
   Thresh                                   ... 2.500e-11
   Tcut                                     ... 2.500e-12
   Tpresel                                  ... 2.500e-12 
Coulomb Range Separation                    ... NOT USED
Exchange Range Separation                   ... Long Range
   Mu parameter                             ... 3.000e-01
   Scaling (regular/separated)              ... 1.670e-01 8.330e-01
Robust (split-)RI terms used:
  metric    (central integrals)             ... YES
  density   (r.h.s.  integrals)             ... YES
  potential (l.h.s.  integrals)             ... YES
Multipole approximations                    ... NOT USED
Finite Nucleus Model                        ... NOT USED
CABS basis                                  ... NOT available
Auxiliary Coulomb fitting basis             ... AVAILABLE
   # of basis functions in Aux-J            ...    518
   # of shells in Aux-J                     ...    170
   Maximum angular momentum in Aux-J        ...      4
Auxiliary J/K fitting basis                 ... NOT available
Auxiliary Correlation fitting basis         ... NOT available
Auxiliary 'external' fitting basis          ... NOT available

Checking pre-screening integrals            ... done (  0.0 sec) Dimension = 66
   => SHARK Basis and OBASIS are compatible. Storing Pre-screening
Shell pair information
Shell pair cut-off parameter TPreSel        ...   2.5e-12
Total number of shell pairs                 ...      2211
Shell pairs after pre-screening             ...      2211
Total number of primitive shell pairs       ...     19539
Primitive shell pairs kept                  ...     17282
          la=0 lb=0:    528 shell pairs
          la=1 lb=0:    800 shell pairs
          la=1 lb=1:    325 shell pairs
          la=2 lb=0:    288 shell pairs
          la=2 lb=1:    225 shell pairs
          la=2 lb=2:     45 shell pairs

Checking whether 4 symmetric matrices of dimension 152 fit in memory
:Max Core in MB      =   4000.00
 MB in use           =      8.15
 MB left             =   3991.85
 MB needed           =      0.35
 Data fit in memory  = YES
Calculating RI/J V-Matrix + Cholesky decomp.... done (  0.0 sec)
Calculating Nuclear repulsion               ... done (  0.0 sec) ENN=    254.393665714559 Eh

Diagonalization of the overlap matrix:
Smallest eigenvalue                        ... 1.499e-03
Time for diagonalization                   ...    0.002 sec
Threshold for overlap eigenvalues          ... 1.000e-07
Number of eigenvalues below threshold      ... 0
Time for construction of square roots      ...    0.001 sec
Total time needed                          ...    0.005 sec

-------------------
DFT GRID GENERATION
-------------------

General Integration Accuracy     IntAcc      ... 4.388
Radial Grid Type                 RadialGrid  ... OptM3 with GC (2021)
Angular Grid (max. ang.)         AngularGrid ... 4 (Lebedev-302)
Angular grid pruning method      GridPruning ... 4 (adaptive)
Weight generation scheme         WeightScheme... mBecke (2022)
Basis function cutoff            BFCut       ... 1.0000e-11
Integration weight cutoff        WCut        ... 1.0000e-14
Partially contracted basis set               ... off
Rotationally invariant grid construction     ... off
Angular grids for H and He will be reduced by one unit

Total number of grid points                  ...    76692
Total number of batches                      ...     1204
Average number of points per batch           ...       63
Average number of grid points per atom       ...     4793

--------------------
COSX GRID GENERATION
--------------------

GRIDX 1
-------
General Integration Accuracy     IntAcc      ... 3.816
Radial Grid Type                 RadialGrid  ... OptM3 with GC (2021)
Angular Grid (max. ang.)         AngularGrid ... 1 (Lebedev-50)
Angular grid pruning method      GridPruning ... 4 (adaptive)
Weight generation scheme         WeightScheme... mBecke (2022)
Basis function cutoff            BFCut       ... 1.0000e-11
Integration weight cutoff        WCut        ... 1.0000e-14
Partially contracted basis set               ... on
Rotationally invariant grid construction     ... off
Angular grids for H and He will be reduced by one unit

Total number of grid points                  ...     9777
Total number of batches                      ...       88
Average number of points per batch           ...      111
Average number of grid points per atom       ...      611
UseSFitting                                  ... on

GRIDX 2
-------
General Integration Accuracy     IntAcc      ... 4.020
Radial Grid Type                 RadialGrid  ... OptM3 with GC (2021)
Angular Grid (max. ang.)         AngularGrid ... 2 (Lebedev-110)
Angular grid pruning method      GridPruning ... 4 (adaptive)
Weight generation scheme         WeightScheme... mBecke (2022)
Basis function cutoff            BFCut       ... 1.0000e-11
Integration weight cutoff        WCut        ... 1.0000e-14
Partially contracted basis set               ... on
Rotationally invariant grid construction     ... off
Angular grids for H and He will be reduced by one unit

Total number of grid points                  ...    21488
Total number of batches                      ...      178
Average number of points per batch           ...      120
Average number of grid points per atom       ...     1343
UseSFitting                                  ... on

GRIDX 3
-------
General Integration Accuracy     IntAcc      ... 4.338
Radial Grid Type                 RadialGrid  ... OptM3 with GC (2021)
Angular Grid (max. ang.)         AngularGrid ... 3 (Lebedev-194)
Angular grid pruning method      GridPruning ... 4 (adaptive)
Weight generation scheme         WeightScheme... mBecke (2022)
Basis function cutoff            BFCut       ... 1.0000e-11
Integration weight cutoff        WCut        ... 1.0000e-14
Partially contracted basis set               ... on
Rotationally invariant grid construction     ... off
Angular grids for H and He will be reduced by one unit

Total number of grid points                  ...    47227
Total number of batches                      ...      379
Average number of points per batch           ...      124
Average number of grid points per atom       ...     2952
UseSFitting                                  ... on
Grids setup in   0.7 sec
Initializing property integral containers    ... done (  0.0 sec)

SHARK setup successfully completed in   0.9 seconds

Maximum memory used throughout the entire STARTUP-calculation: 22.8 MB


           ************************************************************
           *        Program running with 8 parallel MPI-processes     *
           *              working on a common directory               *
           ************************************************************
-------------------------------------------------------------------------------
                                 ORCA GUESS
                   Start orbitals & Density for SCF / CASSCF
-------------------------------------------------------------------------------

------------
SCF SETTINGS
------------
Hamiltonian:
 Density Functional     Method          .... DFT(GTOs)
 Exchange Functional    Exchange        .... WB97X-V
 Correlation Functional Correlation     .... WB97X-V
 Gradients option       PostSCFGGA      .... off
 Hybrid DFT is turned on
   Fraction HF Exchange ScalHFX         ....  0.167000
   Scaling of DF-GGA-X  ScalDFX         ....  0.000000
   Scaling of DF-GGA-C  ScalDFC         ....  1.000000
   Scaling of DF-LDA-C  ScalLDAC        ....  1.000000
   Perturbative correction              ....  0.000000
 Long-range corrected/Screened/Range-Separated Hybrid DFT is turned on
   Amount of maximum screened exact exchange              ....  0.833000
   Range separation parameter mu (erf(mu*r12)/r12)        ....  0.300000
   NL short-range parameter             ....  6.000000
   NL long-range parameter              ....  0.010000
 RI-approximation to the Coulomb term is turned on
   Number of AuxJ basis functions       .... 518
   RIJ-COSX (HFX calculated with COS-X)).... on


General Settings:
 Integral files         IntName         .... ts
 Hartree-Fock type      HFTyp           .... RHF
 Total Charge           Charge          ....    0
 Multiplicity           Mult            ....    1
 Number of Electrons    NEL             ....   50
 Basis Dimension        Dim             ....  152
 Nuclear Repulsion      ENuc            ....    254.3936657146 Eh

Convergence Acceleration:
 AO-DIIS                CNVDIIS         .... on
   Start iteration      DIISMaxIt       ....    12
   Startup error        DIISStart       ....  0.200000
   # of expansion vecs  DIISMaxEq       ....     5
   Bias factor          DIISBfac        ....   1.050
   Max. coefficient     DIISMaxC        ....  10.000
 MO-DIIS                CNVKDIIS        .... off
 Trust-Rad. Augm. Hess. CNVTRAH         .... auto
   Auto Start mean grad. ratio tolernc. ....  1.125000
   Auto Start start iteration           ....    50
   Auto Start num. interpolation iter.  ....    10
   Max. Number of Micro iterations      ....    24
   Max. Number of Macro iterations      .... Maxiter - #DIIS iter
   Number of Davidson start vectors     ....     2
   Converg. threshold    (grad. norm)   ....   1.000e-05
   Grad. Scal. Fac. for Micro threshold ....   0.100
   Minimum threshold for Micro iter.    ....   1.000e-02
   NR start threshold (gradient norm)   ....   1.000e-04
   Initial trust radius                 ....   0.400
   Minimum AH scaling param. (alpha)    ....   1.000
   Maximum AH scaling param. (alpha)    .... 1000.000
   Quad. conv. algorithm                .... NR
   White noise on init. David. guess    .... on
   Maximum white noise                  ....   0.010
   Pseudo random numbers                .... off
   Inactive MOs                         .... canonical
   Orbital update algorithm             .... Taylor
   Preconditioner                       .... Diag
   Full preconditioner red. dimension   ....   250
 SOSCF                 CNVSOSCF           .... on
   Start iteration     SOSCFMaxIt         ....   150
   Startup grad/error  SOSCFStart         ....  0.003300
   Hessian update      SOSCFHessUp        .... L-BFGS
   Autom. constraints  SOSCFAutoConstrain .... off
 Level Shifting         CNVShift        .... on
   Level shift para.    LevelShift      ....    0.2500
   Turn off err/grad.   ShiftErr        ....    0.0010
 Zerner damping         CNVZerner       .... off
 Static damping         CNVDamp         .... on
   Fraction old density DampFac         ....    0.7000
   Max. Damping (<1)    DampMax         ....    0.9800
   Min. Damping (>=0)   DampMin         ....    0.0000
   Turn off err/grad.   DampErr         ....    0.1000

SCF Procedure:
 Maximum # iterations   MaxIter         ....   125
 SCF integral mode      SCFMode         .... Direct
   Integral package                     .... SHARK and LIBINT hybrid scheme
 Reset frequency        DirectResetFreq ....    20
 Integral Threshold     Thresh          ....  2.500e-11 Eh
 Primitive CutOff       TCut            ....  2.500e-12 Eh

Convergence Tolerance:
 Convergence Check Mode ConvCheckMode   .... Total+1el-Energy
 Convergence forced     ConvForced      .... 0
 Energy Change          TolE            ....  1.000e-08 Eh
 1-El. energy change                    ....  1.000e-05 Eh
 Orbital Gradient       TolG            ....  1.000e-05
 Orbital Rotation angle TolX            ....  1.000e-05
 DIIS Error             TolErr          ....  5.000e-07

------------------------------
INITIAL GUESS: MODEL POTENTIAL
------------------------------
Loading Hartree-Fock densities                     ... done
Atomic calculation to generate a density for atom 0 (C  with ECP)
  Multiplicity assumed   :    1
  Atomic configuration   : 1s2 2s2 2p2 
  Number of open shells  : 1
  Command: /home1/yeseo1ee/orca6/orca_6_1_1/orca ts_atom6.inp "" > ts_atom6.out
Returned from the atomic calculation with res=0
Atomic calculation to generate a density for atom 2 (N  with ECP)
  Multiplicity assumed   :    4
  Atomic configuration   : 1s2 2s2 2p3 
  Number of open shells  : 1
  Command: /home1/yeseo1ee/orca6/orca_6_1_1/orca ts_atom7.inp "" > ts_atom7.out
Returned from the atomic calculation with res=0
Atomic calculation to generate a density for atom 3 (O  with ECP)
  Multiplicity assumed   :    3
  Atomic configuration   : 1s2 2s2 2p4 
  Number of open shells  : 1
  Command: /home1/yeseo1ee/orca6/orca_6_1_1/orca ts_atom8.inp "" > ts_atom8.out
Returned from the atomic calculation with res=0
Calculating cut-offs                               ... done
Initializing the effective Hamiltonian             ... done
Setting up the integral package (SHARK)            ... done
Starting the Coulomb interaction                   ... done (   0.1 sec)
Making the grid                                    ... done (   0.1 sec)
Mapping shells                                     ... done
Starting the XC term evaluation                    ... done (   0.0 sec)
  promolecular density results
     # of electrons  =     67.995550157
     EX              =    -40.025988533
     EC              =     -2.877760304
     EX+EC           =    -42.903748837
Transforming the Hamiltonian                       ... done (   0.0 sec)
Diagonalizing the Hamiltonian                      ... done (   0.0 sec)
Back transforming the eigenvectors                 ... done (   0.0 sec)
Now organizing SCF variables                       ... done
                      ------------------
                      INITIAL GUESS DONE (   1.4 sec)
                      ------------------
             **** ENERGY FILE WAS UPDATED (ts.en.tmp) ****
Finished Guess after   1.6 sec
Maximum memory used throughout the entire GUESS-calculation: 11.3 MB


           ************************************************************
           *        Program running with 8 parallel MPI-processes     *
           *              working on a common directory               *
           ************************************************************

-------------------------------------------------------------------------------------------
                                      ORCA LEAN-SCF
                              memory conserving SCF solver
-------------------------------------------------------------------------------------------

----------------------------------------D-I-I-S--------------------------------------------
Iteration    Energy (Eh)           Delta-E    RMSDP     MaxDP     DIISErr   Damp  Time(sec)
-------------------------------------------------------------------------------------------
               ***  Starting incremental Fock matrix formation  ***
    1    -90.2229573032125529     0.00e+00  1.29e-02  1.26e-01  2.56e-01  0.700   2.7
    2    -90.3859470451170921    -1.63e-01  8.59e-03  6.55e-02  1.14e-01  0.700   1.4
                               ***Turning on AO-DIIS***
    3    -90.4563085948239802    -7.04e-02  4.43e-03  2.43e-02  5.21e-02  0.700   1.4
    4    -90.4990346707276956    -4.27e-02  9.69e-03  5.33e-02  3.09e-02  0.000   1.4
    5    -90.5930072142742517    -9.40e-02  1.01e-03  5.49e-03  4.60e-03  0.000   1.4
                              *** Initializing SOSCF ***
---------------------------------------S-O-S-C-F--------------------------------------
Iteration    Energy (Eh)           Delta-E    RMSDP     MaxDP     MaxGrad    Time(sec)
--------------------------------------------------------------------------------------
    6    -90.5933866091280322    -3.79e-04  5.36e-04  2.09e-03  1.71e-03     1.3
               *** Restarting incremental Fock matrix formation ***
    7    -90.5934836261374414    -9.70e-05  3.70e-04  1.93e-03  1.53e-03     2.7
    8    -90.5935183153674473    -3.47e-05  4.30e-04  1.90e-03  5.16e-04     2.4
    9    -90.5935275190621212    -9.20e-06  1.37e-04  7.34e-04  2.71e-04     2.4
   10    -90.5935311490115680    -3.63e-06  4.07e-05  2.33e-04  6.45e-05     2.2
   11    -90.5935312774323336    -1.28e-07  1.66e-05  1.79e-04  4.95e-05     2.1
   12    -90.5935313768456183    -9.94e-08  9.40e-06  8.64e-05  2.72e-05     1.9
   13    -90.5935313755598202     1.29e-09  5.08e-06  3.83e-05  2.18e-05     1.8
                 **** Energy Check signals convergence ****

               *****************************************************
               *                     SUCCESS                       *
               *           SCF CONVERGED AFTER  13 CYCLES          *
               *****************************************************

Recomputing exchange energy using gridx3       ... done (    5.100 sec)
Old exchange energy                            :    -10.083174236 Eh
New exchange energy                            :    -10.083173209 Eh
Exchange energy change after final integration :      0.000001028 Eh
Total energy after final integration           :    -90.593530359 Eh
             **** ENERGY FILE WAS UPDATED (ts.en.tmp) ****

----------------
TOTAL SCF ENERGY
----------------

Total Energy       :        -90.59353035921328 Eh           -2465.17529 eV

Components:
Nuclear Repulsion  :        254.39366571455932 Eh            6922.40357 eV
Electronic Energy  :       -344.98719710131098 Eh           -9387.57889 eV
One Electron Energy:       -646.85639501575690 Eh          -17601.85737 eV
Two Electron Energy:        301.86919791444592 Eh            8214.27848 eV

Virial components:
Potential Energy   :       -160.84741330449199 Eh           -4376.88063 eV
Kinetic Energy     :         70.25388294527872 Eh            1911.70534 eV
Virial Ratio       :          2.28951634502220

DFT components:
N(Alpha)           :       25.000070785974 electrons
N(Beta)            :       25.000070785974 electrons
N(Total)           :       50.000141571948 electrons
E(X)               :      -12.278312652206 Eh       
E(C)               :       -1.976150313733 Eh       
E(XC)              :      -14.254462965939 Eh       

---------------
SCF CONVERGENCE
---------------

  Last Energy change         ...   -1.2858e-09  Tolerance :   1.0000e-08
  Last MAX-Density change    ...    3.8272e-05  Tolerance :   1.0000e-07
  Last RMS-Density change    ...    5.0849e-06  Tolerance :   5.0000e-09
  Last DIIS Error            ...    1.7052e-03  Tolerance :   5.0000e-07
  Last Orbital Gradient      ...    2.1849e-05  Tolerance :   1.0000e-05
  Last Orbital Rotation      ...    2.2064e-05  Tolerance :   1.0000e-05


----------------
ORBITAL ENERGIES
----------------

  NO   OCC          E(Eh)            E(eV) 
   0   2.0000      -1.375618       -37.4325 
   1   2.0000      -1.222251       -33.2591 
   2   2.0000      -1.190433       -32.3933 
   3   2.0000      -0.973031       -26.4775 
   4   2.0000      -0.965980       -26.2857 
   5   2.0000      -0.859740       -23.3947 
   6   2.0000      -0.839399       -22.8412 
   7   2.0000      -0.740378       -20.1467 
   8   2.0000      -0.700164       -19.0524 
   9   2.0000      -0.682611       -18.5748 
  10   2.0000      -0.666443       -18.1348 
  11   2.0000      -0.643799       -17.5187 
  12   2.0000      -0.625327       -17.0160 
  13   2.0000      -0.614978       -16.7344 
  14   2.0000      -0.593487       -16.1496 
  15   2.0000      -0.573757       -15.6127 
  16   2.0000      -0.559410       -15.2223 
  17   2.0000      -0.511405       -13.9160 
  18   2.0000      -0.505446       -13.7539 
  19   2.0000      -0.459641       -12.5075 
  20   2.0000      -0.440497       -11.9865 
  21   2.0000      -0.427952       -11.6452 
  22   2.0000      -0.420941       -11.4544 
  23   2.0000      -0.407629       -11.0922 
  24   2.0000      -0.345088        -9.3903 
  25   0.0000      -0.024279        -0.6607 
  26   0.0000       0.052631         1.4322 
  27   0.0000       0.076079         2.0702 
  28   0.0000       0.088941         2.4202 
  29   0.0000       0.098790         2.6882 
  30   0.0000       0.108194         2.9441 
  31   0.0000       0.127477         3.4688 
  32   0.0000       0.129519         3.5244 
  33   0.0000       0.148256         4.0342 
  34   0.0000       0.168699         4.5905 
  35   0.0000       0.199633         5.4323 
*Only the first 10 virtual orbitals were printed.

                    ********************************
                    * MULLIKEN POPULATION ANALYSIS *
                    ********************************

-----------------------
MULLIKEN ATOMIC CHARGES
-----------------------
   0 C :   -0.019874
   1 C :    0.128299
   2 N :    0.371512
   3 O :   -0.317667
   4 O :   -0.299902
   5 O :   -0.326063
   6 C :    0.108729
   7 C :    0.004963
   8 C :   -0.087875
   9 H :    0.076688
  10 H :    0.078027
  11 H :    0.066548
  12 H :    0.058589
  13 H :    0.031856
  14 H :    0.067462
  15 H :    0.058710
Sum of atomic charges:    0.0000000

--------------------------------
MULLIKEN REDUCED ORBITAL CHARGES
--------------------------------
  0 C s       :     1.015451  s :     1.015451
      pz      :     0.987036  p :     2.927613
      px      :     0.908351
      py      :     1.032226
      dz2     :     0.019301  d :     0.076811
      dxz     :     0.016423
      dyz     :     0.021821
      dx2y2   :     0.009590
      dxy     :     0.009676

  1 C s       :     1.049005  s :     1.049005
      pz      :     0.868582  p :     2.621777
      px      :     0.992359
      py      :     0.760836
      dz2     :     0.034839  d :     0.200919
      dxz     :     0.037083
      dyz     :     0.067261
      dx2y2   :     0.035290
      dxy     :     0.026446

  2 N s       :     1.280116  s :     1.280116
      pz      :     1.011184  p :     3.116439
      px      :     1.043568
      py      :     1.061687
      dz2     :     0.046546  d :     0.231932
      dxz     :     0.044652
      dyz     :     0.069906
      dx2y2   :     0.044344
      dxy     :     0.026484

  3 O s       :     1.881301  s :     1.881301
      pz      :     1.797794  p :     4.390997
      px      :     1.317325
      py      :     1.275879
      dz2     :     0.005477  d :     0.045368
      dxz     :     0.004152
      dyz     :     0.007577
      dx2y2   :     0.013636
      dxy     :     0.014526

  4 O s       :     1.884520  s :     1.884520
      pz      :     1.206456  p :     4.369338
      px      :     1.447008
      py      :     1.715875
      dz2     :     0.015602  d :     0.046044
      dxz     :     0.015372
      dyz     :     0.010079
      dx2y2   :     0.002882
      dxy     :     0.002108

  5 O s       :     1.746136  s :     1.746136
      pz      :     1.816883  p :     4.536763
      px      :     1.235790
      py      :     1.484090
      dz2     :     0.005570  d :     0.043164
      dxz     :     0.004707
      dyz     :     0.005982
      dx2y2   :     0.013909
      dxy     :     0.012996

  6 C s       :     1.026362  s :     1.026362
      pz      :     0.999183  p :     2.740863
      px      :     0.680647
      py      :     1.061033
      dz2     :     0.024734  d :     0.124046
      dxz     :     0.028233
      dyz     :     0.025564
      dx2y2   :     0.021738
      dxy     :     0.023777

  7 C s       :     1.031943  s :     1.031943
      pz      :     0.930152  p :     2.872422
      px      :     0.974824
      py      :     0.967446
      dz2     :     0.019665  d :     0.090672
      dxz     :     0.010956
      dyz     :     0.034339
      dx2y2   :     0.013469
      dxy     :     0.012243

  8 C s       :     1.037384  s :     1.037384
      pz      :     1.043845  p :     2.966246
      px      :     0.916416
      py      :     1.005985
      dz2     :     0.016849  d :     0.084245
      dxz     :     0.005596
      dyz     :     0.025350
      dx2y2   :     0.023972
      dxy     :     0.012479

  9 H s       :     0.872463  s :     0.872463
      pz      :     0.011128  p :     0.050848
      px      :     0.016542
      py      :     0.023178

 10 H s       :     0.872403  s :     0.872403
      pz      :     0.018300  p :     0.049571
      px      :     0.012141
      py      :     0.019129

 11 H s       :     0.888279  s :     0.888279
      pz      :     0.019880  p :     0.045173
      px      :     0.008120
      py      :     0.017173

 12 H s       :     0.899083  s :     0.899083
      pz      :     0.011290  p :     0.042328
      px      :     0.009095
      py      :     0.021943

 13 H s       :     0.919493  s :     0.919493
      pz      :     0.016853  p :     0.048650
      px      :     0.014804
      py      :     0.016993

 14 H s       :     0.884537  s :     0.884537
      pz      :     0.016666  p :     0.048002
      px      :     0.012323
      py      :     0.019013

 15 H s       :     0.894530  s :     0.894530
      pz      :     0.024603  p :     0.046761
      px      :     0.011175
      py      :     0.010982



                     *******************************
                     * LOEWDIN POPULATION ANALYSIS *
                     *******************************

----------------------
LOEWDIN ATOMIC CHARGES
----------------------
   0 C :    0.002960
   1 C :   -0.087430
   2 N :    0.135716
   3 O :   -0.167955
   4 O :   -0.150181
   5 O :   -0.031807
   6 C :    0.005819
   7 C :   -0.061730
   8 C :   -0.023305
   9 H :    0.057580
  10 H :    0.059228
  11 H :    0.053470
  12 H :    0.064634
  13 H :    0.040777
  14 H :    0.049289
  15 H :    0.052934

-------------------------------
LOEWDIN REDUCED ORBITAL CHARGES
-------------------------------
  0 C s       :     0.816028  s :     0.816028
      pz      :     1.045715  p :     2.936219
      px      :     0.842134
      py      :     1.048370
      dz2     :     0.068229  d :     0.244793
      dxz     :     0.042890
      dyz     :     0.076833
      dx2y2   :     0.025813
      dxy     :     0.031026

  1 C s       :     0.766252  s :     0.766252
      pz      :     0.954048  p :     2.750265
      px      :     0.939502
      py      :     0.856715
      dz2     :     0.108199  d :     0.570913
      dxz     :     0.094130
      dyz     :     0.186394
      dx2y2   :     0.099371
      dxy     :     0.082820

  2 N s       :     0.953919  s :     0.953919
      pz      :     1.127385  p :     3.290386
      px      :     1.056788
      py      :     1.106213
      dz2     :     0.131301  d :     0.619979
      dxz     :     0.122030
      dyz     :     0.176708
      dx2y2   :     0.105474
      dxy     :     0.084467

  3 O s       :     1.585952  s :     1.585952
      pz      :     1.724422  p :     4.473935
      px      :     1.371868
      py      :     1.377645
      dz2     :     0.014755  d :     0.108069
      dxz     :     0.010495
      dyz     :     0.017443
      dx2y2   :     0.026656
      dxy     :     0.038720

  4 O s       :     1.585190  s :     1.585190
      pz      :     1.353022  p :     4.455300
      px      :     1.441698
      py      :     1.660580
      dz2     :     0.041715  d :     0.109691
      dxz     :     0.034301
      dyz     :     0.021797
      dx2y2   :     0.006390
      dxy     :     0.005488

  5 O s       :     1.423892  s :     1.423892
      pz      :     1.718171  p :     4.499806
      px      :     1.247971
      py      :     1.533665
      dz2     :     0.012493  d :     0.108109
      dxz     :     0.013982
      dyz     :     0.012629
      dx2y2   :     0.038510
      dxy     :     0.030495

  6 C s       :     0.784679  s :     0.784679
      pz      :     1.042343  p :     2.833169
      px      :     0.715750
      py      :     1.075076
      dz2     :     0.079263  d :     0.376333
      dxz     :     0.073350
      dyz     :     0.084392
      dx2y2   :     0.066670
      dxy     :     0.072659

  7 C s       :     0.803261  s :     0.803261
      pz      :     1.007439  p :     2.955783
      px      :     0.918606
      py      :     1.029738
      dz2     :     0.066304  d :     0.302686
      dxz     :     0.038582
      dyz     :     0.119376
      dx2y2   :     0.037545
      dxy     :     0.040879

  8 C s       :     0.813052  s :     0.813052
      pz      :     1.071347  p :     2.944066
      px      :     0.835754
      py      :     1.036966
      dz2     :     0.055411  d :     0.266187
      dxz     :     0.016282
      dyz     :     0.089536
      dx2y2   :     0.069233
      dxy     :     0.035725

  9 H s       :     0.785487  s :     0.785487
      pz      :     0.040982  p :     0.156933
      px      :     0.050726
      py      :     0.065225

 10 H s       :     0.787611  s :     0.787611
      pz      :     0.053512  p :     0.153161
      px      :     0.043263
      py      :     0.056386

 11 H s       :     0.798026  s :     0.798026
      pz      :     0.059525  p :     0.148504
      px      :     0.033176
      py      :     0.055803

 12 H s       :     0.795865  s :     0.795865
      pz      :     0.040836  p :     0.139501
      px      :     0.034133
      py      :     0.064532

 13 H s       :     0.804276  s :     0.804276
      pz      :     0.054577  p :     0.154946
      px      :     0.047263
      py      :     0.053107

 14 H s       :     0.797533  s :     0.797533
      pz      :     0.054546  p :     0.153177
      px      :     0.043867
      py      :     0.054765

 15 H s       :     0.797333  s :     0.797333
      pz      :     0.070079  p :     0.149733
      px      :     0.039620
      py      :     0.040033



                      *****************************
                      * MAYER POPULATION ANALYSIS *
                      *****************************

  NA   - Mulliken gross atomic population
  ZA   - Total nuclear charge
  QA   - Mulliken gross atomic charge
  VA   - Mayer's total valence
  BVA  - Mayer's bonded valence
  FA   - Mayer's free valence

  ATOM       NA         ZA         QA         VA         BVA        FA
  0 C      4.0199     4.0000    -0.0199     3.9873     3.9873     0.0000
  1 C      3.8717     4.0000     0.1283     4.0792     4.0792     0.0000
  2 N      4.6285     5.0000     0.3715     3.9370     3.9370     0.0000
  3 O      6.3177     6.0000    -0.3177     1.7636     1.7636     0.0000
  4 O      6.2999     6.0000    -0.2999     1.7877     1.7877    -0.0000
  5 O      6.3261     6.0000    -0.3261     2.0248     2.0248    -0.0000
  6 C      3.8913     4.0000     0.1087     3.9589     3.9589     0.0000
  7 C      3.9950     4.0000     0.0050     3.9445     3.9445     0.0000
  8 C      4.0879     4.0000    -0.0879     4.0198     4.0198     0.0000
  9 H      0.9233     1.0000     0.0767     1.0427     1.0427     0.0000
 10 H      0.9220     1.0000     0.0780     1.0142     1.0142    -0.0000
 11 H      0.9335     1.0000     0.0665     1.0293     1.0293     0.0000
 12 H      0.9414     1.0000     0.0586     1.0322     1.0322    -0.0000
 13 H      0.9681     1.0000     0.0319     1.0419     1.0419     0.0000
 14 H      0.9325     1.0000     0.0675     1.0162     1.0162     0.0000
 15 H      0.9413     1.0000     0.0587     1.0314     1.0314    -0.0000

  Mayer bond orders larger than 0.100000
B(  0-C ,  1-C ) :   1.6119 B(  0-C ,  8-C ) :   0.2807 B(  0-C ,  9-H ) :   0.9755 
B(  0-C , 10-H ) :   0.9871 B(  1-C ,  2-N ) :   0.9779 B(  1-C ,  5-O ) :   1.2237 
B(  1-C ,  7-C ) :   0.1051 B(  2-N ,  3-O ) :   1.4555 B(  2-N ,  4-O ) :   1.4768 
B(  3-O ,  4-O ) :   0.2156 B(  5-O ,  6-C ) :   0.7100 B(  6-C ,  7-C ) :   1.1354 
B(  6-C , 11-H ) :   0.9929 B(  6-C , 12-H ) :   1.0074 B(  7-C ,  8-C ) :   1.6472 
B(  7-C , 13-H ) :   1.0005 B(  8-C , 14-H ) :   0.9941 B(  8-C , 15-H ) :   0.9927 


-------
TIMINGS
-------

Total SCF time: 0 days 0 hours 0 min 32 sec 

Total time                  ....      32.364 sec
Sum of individual times     ....      30.530 sec  ( 94.3%)

SCF preparation             ....       0.262 sec  (  0.8%)
Fock matrix formation       ....      29.987 sec  ( 92.7%)
  Startup                   ....       0.010 sec  (  0.0% of F)
  Split-RI-J                ....       1.338 sec  (  4.5% of F)
  Chain of spheres X        ....      28.111 sec  ( 93.7% of F)
  XC integration            ....       2.135 sec  (  7.1% of F)
    XC Preparation          ....       0.000 sec  (  0.0% of XC)
    Basis function eval.    ....       0.757 sec  ( 35.4% of XC)
    Density eval.           ....       0.329 sec  ( 15.4% of XC)
    XC-Functional eval.     ....       0.363 sec  ( 17.0% of XC)
    XC-Potential eval.      ....       0.434 sec  ( 20.3% of XC)
Diagonalization             ....       0.000 sec  (  0.0%)
Density matrix formation    ....       0.040 sec  (  0.1%)
Total Energy calculation    ....       0.023 sec  (  0.1%)
Population analysis         ....       0.013 sec  (  0.0%)
Orbital Transformation      ....       0.017 sec  (  0.1%)
Orbital Orthonormalization  ....       0.000 sec  (  0.0%)
DIIS solution               ....       0.101 sec  (  0.3%)
SOSCF solution              ....       0.088 sec  (  0.3%)
Finished LeanSCF after  32.4 sec

Maximum memory used throughout the entire LEANSCF-calculation: 19.1 MB


           ************************************************************
           *        Program running with 8 parallel MPI-processes     *
           *              working on a common directory               *
           ************************************************************

------------------------------------------------------------------------------
                         ORCA PROPERTY INTEGRAL CALCULATIONS
------------------------------------------------------------------------------

GBWName                                   ... ts.gbw
Number of atoms                           ...     16
Number of basis functions                 ...    152
Max core memory                           ...   4000 MB

Dipole integrals                          ... YES
Quadrupole integrals                      ...  NO
Linear momentum integrals                 ...  NO
Angular momentum integrals                ...  NO
Higher moments length integrals           ...  NO
Higher moments velocity integrals         ...  NO
Kinetic energy integrals                  ...  NO
GIAO right hand sides                     ...  NO
GIAO dipole derivative integrals          ...  NO
SOC integrals                             ...  NO
EPR diamagnetic integrals (GIAO)          ...  NO
EPR gauge integrals                       ...  NO
Field gradient integrals                  ...  NO (   0 nuclei)
Spin-dipole/Fermi contact integrals       ...  NO (   0 nuclei)
Contact density integrals                 ...  NO (   0 nuclei)
Nucleus-orbit integrals                   ...  NO (   0 nuclei)
Geometric perturbations                   ...  NO (  16 nuclei)

Choice of electric origin   ... Center of mass
Position of electric origin ... ( -0.7868,  0.1375,  0.9951) 
Choice of magnetic origin   ... GIAO
Position of magnetic origin ... (  0.0000,  0.0000,  0.0000) 

Calculating integrals                     ... Electric Dipole (Length)     done (  0.0 sec)

Property integrals calculated in   0.0 sec

Maximum memory used throughout the entire PROPINT-calculation: 11.6 MB


-------------------------------------------------------------------------------
                          DFT DISPERSION CORRECTION                            
                                                                               
                                DFTD4 V3.4.0                                   
-------------------------------------------------------------------------------
The wB97X-3c composite method is recognized
Using three-body term ABC
Active option DFTDOPT                   ...         5   

-------------------------   ----------------
Dispersion correction           -0.019228663
-------------------------   ----------------


-------------------------   --------------------
FINAL SINGLE POINT ENERGY       -90.612759021748
-------------------------   --------------------



           ************************************************************
           *        Program running with 8 parallel MPI-processes     *
           *              working on a common directory               *
           ************************************************************
------------------------------------------------------------------------------
                         ORCA SCF GRADIENT CALCULATION
------------------------------------------------------------------------------

Nuc. rep. gradient        (SHARK) ... done (  0.0 sec)
HCore & Overlap gradient  (SHARK) ... done (  0.1 sec)
ECP gradient              (SHARK) ... done (  0.4 sec)
Split-RIJ-J gradient      (SHARK) ... done (  0.5 sec)
COSX-gradient                     ... done ( 10.1 sec)
XC gradient                       ... done (  0.6 sec)
Dispersion correction             ... done (  0.0 sec)

-------------------
DISPERSION GRADIENT
-------------------

   1   C   :   -0.000104477    0.000118521   -0.000550681
   2   C   :   -0.000382119   -0.000151611    0.000099368
   3   N   :   -0.000395600    0.000216495    0.000428159
   4   O   :   -0.000359070    0.000361905    0.000201090
   5   O   :   -0.000135757    0.000146312    0.000572450
   6   O   :   -0.000004518   -0.000506847    0.000190808
   7   C   :    0.000432937   -0.000332036    0.000152186
   8   C   :    0.000579497   -0.000114174   -0.000245139
   9   C   :    0.000056830    0.000225607   -0.000457151
  10   H   :   -0.000143312    0.000064765   -0.000105844
  11   H   :   -0.000135958   -0.000050310   -0.000152032
  12   H   :    0.000141408   -0.000055205    0.000117242
  13   H   :    0.000092231   -0.000106370    0.000059350
  14   H   :    0.000136302   -0.000069094   -0.000092139
  15   H   :    0.000137020    0.000163370   -0.000093454
  16   H   :    0.000084588    0.000088673   -0.000124213

Difference to translation invariance:
           :   -0.0000000000    0.0000000000    0.0000000000

Difference to rotation invariance:
           :    0.0000000000    0.0000000000    0.0000000000

Norm of the Dispersion gradient    ...    0.0017619779
RMS gradient                       ...    0.0002543196
MAX gradient                       ...    0.0005794972

------------------
CARTESIAN GRADIENT
------------------

   1   C   :    0.025584919    0.007202948   -0.002088280
   2   C   :   -0.000038297    0.000067624    0.000125351
   3   N   :    0.000004545   -0.000069618   -0.000098365
   4   O   :   -0.000014610    0.000005505   -0.000002568
   5   O   :    0.000012146    0.000007155    0.000029608
   6   O   :    0.000027878   -0.000021752   -0.000033420
   7   C   :    0.000005883    0.000040106    0.000014893
   8   C   :    0.000027348   -0.000063668    0.000042907
   9   C   :   -0.025625636   -0.007096497    0.002027660
  10   H   :    0.000000786   -0.000011630   -0.000021440
  11   H   :    0.000015278   -0.000042001    0.000040084
  12   H   :   -0.000020083   -0.000005022    0.000009908
  13   H   :    0.000004320   -0.000004230   -0.000019875
  14   H   :    0.000002988    0.000024254   -0.000020001
  15   H   :    0.000005537   -0.000006516    0.000002139
  16   H   :    0.000006996   -0.000026658   -0.000008601

Difference to translation invariance:
           :   -0.0000000000    0.0000000000    0.0000000000

Difference to rotation invariance:
           :   -0.0001658591   -0.0001375673    0.0001470745

Norm of the Cartesian gradient     ...    0.0377098381
RMS gradient                       ...    0.0054429463
MAX gradient                       ...    0.0256256358

-------
TIMINGS
-------

Total SCF gradient time     ....       11.649 sec

Densities                   ....       0.000 sec  (  0.0%)
One electron gradient       ....       0.055 sec  (  0.5%)
RI-J Coulomb gradient       ....       0.489 sec  (  4.2%)
COSX gradient               ....      10.061 sec  ( 86.4%)
XC gradient                 ....       0.625 sec  (  5.4%)

Maximum memory used throughout the entire SCFGRAD-calculation: 31.6 MB


           ************************************************************
           *        Program running with 8 parallel MPI-processes     *
           *              working on a common directory               *
           ************************************************************

------------------------------------------------------------------------------
                         ORCA PROPERTY INTEGRAL CALCULATIONS
------------------------------------------------------------------------------

GBWName                                   ... ts.gbw
Number of atoms                           ...     16
Number of basis functions                 ...    152
Max core memory                           ...   4000 MB

Dipole integrals                          ...  NO
Quadrupole integrals                      ...  NO
Linear momentum integrals                 ...  NO
Angular momentum integrals                ...  NO
Higher moments length integrals           ...  NO
Higher moments velocity integrals         ...  NO
Kinetic energy integrals                  ...  NO
GIAO right hand sides                     ...  NO
GIAO dipole derivative integrals          ...  NO
SOC integrals                             ...  NO
EPR diamagnetic integrals (GIAO)          ...  NO
EPR gauge integrals                       ...  NO
Field gradient integrals                  ...  NO (   0 nuclei)
Spin-dipole/Fermi contact integrals       ...  NO (   0 nuclei)
Contact density integrals                 ...  NO (   0 nuclei)
Nucleus-orbit integrals                   ...  NO (   0 nuclei)
Geometric perturbations                   ... YES (  16 nuclei)

Choice of electric origin   ... Center of mass
Position of electric origin ... ( -0.7868,  0.1375,  0.9951) 
Choice of magnetic origin   ... GIAO
Position of magnetic origin ... (  0.0000,  0.0000,  0.0000) 

Calculating integrals                     ... Geometrical perturbation right hand sides

-----------------------
GEOMETRIC PERTURBATIONS (16 nuclei)
-----------------------

MaxCore                            ...   4000 MB
Number of batches                  ...      1

BATCH   0: Atoms    0 -   15 ( 48 perturbations)
   => H(core) and overlap derivative integrals     ... done (     0.1 sec)
   => Making and storing internal U-coefficients   ... done (     0.0 sec)
   => RI-J derivative integrals                    ... done (     1.0 sec)
   => RI-J response operators                      ... done (     0.3 sec)
   => Chain of spheres derivative integrals        ... done (     5.5 sec)
   => Chain of spheres response operator           ... done (     3.9 sec)
   => ECP derivative integrals                     ... done (     6.8 sec)
   => XC derivative integrals                      ... done (     9.9 sec)
   => XC response operators                        ... done (     2.7 sec)
   => Completing and storing right hand sides      ... done (     0.0 sec)
   => Total time for right hand sides =  30.5 sec

  geometrical perturbations done ( 30.5 sec)

Property integrals calculated in  30.5 sec

Maximum memory used throughout the entire PROPINT-calculation: 113.1 MB


           ************************************************************
           *        Program running with 8 parallel MPI-processes     *
           *              working on a common directory               *
           ************************************************************
------------------------------------------------------------------------------
                            ORCA SCF RESPONSE CALCULATION
------------------------------------------------------------------------------

GBWName                                 ... ts.gbw
Number of atoms                         ...     16
Number of basis functions               ...    152
Max core memory                         ...   4000 MB

Electric field perturbation             ...  NO
Quadrupolar field perturbation          ...  NO
Magnetic field perturbation (no GIAO)   ...  NO
Magnetic field perturbation (with GIAO) ...  NO
Linear momentum (velocity) perturbation ...  NO
Spin-orbit coupling perturbation        ...  NO
Choice of electric origin               ... Center of mass
Position of electric origin             ...    -0.786817     0.137527     0.995102
Choice of magnetic origin               ... GIAO
Position of magnetic origin             ...     0.000000     0.000000     0.000000
Nuclear geometric perturbations         ... YES (  48 perturbations)
Nucleus-orbit perturbations             ...  NO (   0 perturbations)
Spin-dipole/Fermi contact perturbations ...  NO (   0 perturbations)

Total number of real perturbations      ...     48
Total number of imaginary perturbations ...      0
Total number of triplet perturbations   ...      0
Total number of SOC perturbations       ...      0

Using XC Grid                  ... (ts.grid_cpscf.tmp) 
Recalculating density on grid  ... (ts.grho_cpscf0.tmp) done
Calculating the xc-kernel      ... (ts.fxc_cpscf0.tmp) done

                                **********************
                                * REAL PERTURBATIONS *
                                **********************



-------------------
SHARK CP-SCF DRIVER
-------------------

Dimension of the orbital basis          ...    152
Dimension of the CPSCF-problem          ...   3175
Number of operators                     ...      1
Max. number of iterations               ...    128
Convergence Tolerance                   ... 1.0e-04
Number of perturbations                 ...     48
Perturbation type                       ... REAL

----------------------------
POPLE LINEAR EQUATION SOLVER
----------------------------

  ITERATION   0:   ||err||_max =   3.6283e-01 (   2.3 sec   0/ 48 done)
  ITERATION   1:   ||err||_max =   7.5516e-02 (   2.3 sec   0/ 48 done)
  ITERATION   2:   ||err||_max =   4.6821e-02 (   2.3 sec   0/ 48 done)
  ITERATION   3:   ||err||_max =   1.8692e-02 (   2.3 sec   0/ 48 done)
  ITERATION   4:   ||err||_max =   7.5959e-03 (   2.3 sec   0/ 48 done)
  ITERATION   5:   ||err||_max =   2.9648e-03 (   2.3 sec   0/ 48 done)
  ITERATION   6:   ||err||_max =   1.1846e-03 (   2.3 sec   2/ 48 done)
  ITERATION   7:   ||err||_max =   5.0328e-04 (   2.3 sec  19/ 48 done)
  ITERATION   8:   ||err||_max =   2.2179e-04 (   1.8 sec  38/ 48 done)
  ITERATION   9:   ||err||_max =   9.4654e-05 (   1.2 sec  48/ 48 done)

CP-SCF equations solved in  21.5 sec
Response densities calculated in   0.0 sec

Maximum memory used throughout the entire SCFRESP-calculation: 118.7 MB


           ************************************************************
           *        Program running with 8 parallel MPI-processes     *
           *              working on a common directory               *
           ************************************************************

------------------------------------------------------------------------------
                              ORCA PROPERTY CALCULATIONS
------------------------------------------------------------------------------

GBWName                                 ... ts.gbw
Number of atoms                         ...     16
Number of basis functions               ...    152
Max core memory                         ...   4000 MB

Electric properties:
Dipole moment                           ...  NO
Quadrupole moment                       ...  NO
Static polarizability (Dipole/Dipole)   ...  NO
Static polarizability (Dipole/Quad.)    ...  NO
Static polarizability (Quad./Quad.)     ...  NO
Static polarizability (Velocity)        ...  NO
[...]
     22       0.008560   0.009754   0.055311   0.007220  -0.004802  -0.000231
     23       0.002346   0.011454   0.060673   0.007614  -0.006032  -0.000095
     24      -0.000457   0.000035   0.003230  -0.003116  -0.000171  -0.000221
     25       0.000297  -0.003356  -0.011977   0.020283  -0.000060  -0.000184
     26      -0.002115  -0.002096  -0.008771   0.097052  -0.001654   0.000217
     27      -0.004987  -0.357175   0.068954  -0.002854  -0.003199   0.346085
     28       0.008205   0.598345  -0.116755   0.005204   0.005101  -0.573872
     29      -0.002051  -0.137192   0.026326  -0.001095  -0.001133   0.139217
     30       0.000193   0.077366  -0.015977  -0.002025  -0.000133   0.078269
     31      -0.005542  -0.455788   0.088746  -0.001118   0.002446  -0.485173
     32      -0.005533  -0.492588   0.095385  -0.000028   0.002733  -0.528915
     33       0.013295  -0.001431  -0.002341   0.000827  -0.010245   0.000257
     34      -0.488757   0.022116   0.092289   0.008785   0.420953   0.002453
     35      -0.555332   0.025510   0.105685   0.007672   0.492610   0.002729
     36      -0.207923   0.003571   0.003379  -0.008716  -0.235405  -0.001680
     37       0.606243  -0.011465  -0.013671   0.021813   0.689658   0.005506
     38      -0.146909   0.003138   0.005638  -0.005709  -0.175842  -0.001479
     39       0.024970   0.036575   0.195591   0.023665  -0.016846   0.000364
     40      -0.079818  -0.116275  -0.629545  -0.077611   0.055328   0.000165
     41      -0.088261  -0.128243  -0.693371  -0.082113   0.065762   0.000022
     42       0.001656  -0.004474  -0.014204   0.066153  -0.002587  -0.001431
     43       0.002123   0.030870   0.101856  -0.479260   0.010325  -0.001879
     44       0.002566   0.029926   0.098970  -0.456035   0.008409  -0.001633
     45       0.000942   0.001363  -0.001615  -0.023881   0.000882   0.000144
     46      -0.008321   0.002405  -0.004768   0.229139  -0.002555   0.001210
     47       0.022940  -0.006139   0.018444  -0.693425   0.008871  -0.003353


-----------
IR SPECTRUM
-----------

 Mode   freq       eps      Int      T**2         TX        TY        TZ
       cm**-1   L/(mol*cm) km/mol    a.u.
----------------------------------------------------------------------------
  7:     53.61   0.000074    0.37  0.000430  (-0.017590 -0.006490 -0.008886)
  8:    111.78   0.000615    3.11  0.001717  (-0.037483 -0.000745  0.017647)
  9:    153.04   0.000380    1.92  0.000774  ( 0.015341 -0.017032 -0.015772)
 10:    286.14   0.002479   12.53  0.002703  (-0.050276 -0.009116  0.009622)
 11:    342.52   0.000689    3.48  0.000628  ( 0.011447  0.014319  0.017088)
 12:    357.04   0.001798    9.09  0.001571  ( 0.025336  0.016002 -0.025950)
 13:    393.01   0.001250    6.32  0.000993  (-0.026205 -0.016108  0.006838)
 14:    449.65   0.000010    0.05  0.000007  (-0.000252  0.002285  0.001355)
 15:    476.82   0.000543    2.74  0.000355  (-0.001248 -0.018049  0.005273)
 16:    503.39   0.000951    4.80  0.000589  (-0.010477  0.021424 -0.004542)
 17:    620.19   0.004627   23.38  0.002328  (-0.025012  0.001423  0.041240)
 18:    675.74   0.003120   15.77  0.001441  ( 0.001802 -0.028541 -0.024962)
 19:    770.00   0.005484   27.71  0.002222  (-0.046854  0.002448 -0.004598)
 20:    819.04   0.003594   18.16  0.001369  ( 0.034891  0.003698 -0.011754)
 21:    854.12   0.000807    4.08  0.000295  (-0.014621  0.008390 -0.003292)
 22:    896.64   0.015090   76.26  0.005252  (-0.055643  0.003025  0.046329)
 23:    910.63   0.006474   32.72  0.002219  (-0.033687 -0.030530  0.012316)
 24:    932.79   0.001585    8.01  0.000530  ( 0.020074  0.010993  0.002536)
 25:    980.45   0.000135    0.68  0.000043  ( 0.002075 -0.000619  0.006188)
 26:   1044.42   0.002531   12.79  0.000756  ( 0.026732 -0.006329 -0.001294)
 27:   1056.27   0.000823    4.16  0.000243  (-0.012948 -0.008423  0.002107)
 28:   1074.12   0.001977    9.99  0.000575  ( 0.013233  0.003428 -0.019689)
 29:   1085.94   0.000310    1.57  0.000089  (-0.008226 -0.004576 -0.000717)
 30:   1135.87   0.001530    7.73  0.000420  ( 0.017855  0.009242  0.004022)
 31:   1283.59   0.000417    2.11  0.000101  ( 0.004037  0.004149  0.008239)
 32:   1297.38   0.006985   35.30  0.001680  (-0.027683  0.029677  0.005756)
 33:   1325.38   0.000533    2.70  0.000126  ( 0.003027 -0.009521  0.005076)
 34:   1452.89   0.004258   21.52  0.000915  ( 0.024578 -0.017375  0.002945)
 35:   1484.11   0.011746   59.36  0.002470  ( 0.022563 -0.012581 -0.042455)
 36:   1501.96   0.018309   92.53  0.003804  (-0.018023  0.039689  0.043636)
 37:   1564.66   0.001792    9.05  0.000357  (-0.006140 -0.008044 -0.015965)
 38:   1598.10   0.003501   17.69  0.000684  ( 0.018182  0.012590 -0.013949)
 39:   1723.82   0.065614  331.58  0.011878  (-0.057641  0.064778 -0.066026)
 40:   1749.17   0.020138  101.77  0.003593  (-0.055469  0.005314 -0.022084)
 41:   3212.96   0.000500    2.52  0.000049  ( 0.001447 -0.006787  0.000596)
 42:   3228.83   0.000686    3.47  0.000066  ( 0.007212 -0.003435  0.001576)
 43:   3248.36   0.000459    2.32  0.000044  (-0.001638  0.006135 -0.001943)
 44:   3249.84   0.000662    3.35  0.000064  (-0.005433  0.002599  0.005228)
 45:   3313.81   0.000011    0.06  0.000001  (-0.000236  0.000443 -0.000896)
 46:   3334.31   0.000210    1.06  0.000020  (-0.000981  0.001865  0.003904)
 47:   3362.15   0.000980    4.95  0.000091  ( 0.005155 -0.007847 -0.001688)

* The epsilon (eps) is given for a Dirac delta lineshape.
** The dipole moment derivative (T) already includes vibrational overlap.

The first frequency considered to be a vibration is 7
The total number of vibrations considered is 41


--------------------------
THERMOCHEMISTRY AT 298.15K
--------------------------

Temperature         ...   298.15 K
Pressure            ...     1.00 atm
Total Mass          ...   129.11 AMU
Quasi RRHO          ...     True
Cut-Off Frequency   ...     1.00 cm^-1

Throughout the following assumptions are being made:
  (1) The electronic state is orbitally nondegenerate
  (2) There are no thermally accessible electronically excited states
  (3) Hindered rotations indicated by low frequency modes are not
      treated as such but are treated as vibrations and this may
      cause some error
  (4) All equations used are the standard statistical mechanics
      equations for an ideal gas
  (5) All vibrations are strictly harmonic

freq.      53.61  E(vib)   ...       0.52 
freq.     111.78  E(vib)   ...       0.45 
freq.     153.04  E(vib)   ...       0.40 
freq.     286.14  E(vib)   ...       0.27 
freq.     342.52  E(vib)   ...       0.23 
freq.     357.04  E(vib)   ...       0.22 
freq.     393.01  E(vib)   ...       0.20 
freq.     449.65  E(vib)   ...       0.17 
freq.     476.82  E(vib)   ...       0.15 
freq.     503.39  E(vib)   ...       0.14 
freq.     620.19  E(vib)   ...       0.09 
freq.     675.74  E(vib)   ...       0.08 
freq.     770.00  E(vib)   ...       0.05 
freq.     819.04  E(vib)   ...       0.05 
freq.     854.12  E(vib)   ...       0.04 
freq.     896.64  E(vib)   ...       0.03 
freq.     910.63  E(vib)   ...       0.03 
freq.     932.79  E(vib)   ...       0.03 
freq.     980.45  E(vib)   ...       0.02 
freq.    1044.42  E(vib)   ...       0.02 
freq.    1056.27  E(vib)   ...       0.02 
freq.    1074.12  E(vib)   ...       0.02 
freq.    1085.94  E(vib)   ...       0.02 
freq.    1135.87  E(vib)   ...       0.01 
freq.    1283.59  E(vib)   ...       0.01 
freq.    1297.38  E(vib)   ...       0.01 
freq.    1325.38  E(vib)   ...       0.01 
freq.    1452.89  E(vib)   ...       0.00 
freq.    1484.11  E(vib)   ...       0.00 
freq.    1501.96  E(vib)   ...       0.00 
freq.    1564.66  E(vib)   ...       0.00 
freq.    1598.10  E(vib)   ...       0.00 
freq.    1723.82  E(vib)   ...       0.00 
freq.    1749.17  E(vib)   ...       0.00 
freq.    3212.96  E(vib)   ...       0.00 
freq.    3228.83  E(vib)   ...       0.00 
freq.    3248.36  E(vib)   ...       0.00 
freq.    3249.84  E(vib)   ...       0.00 
freq.    3313.81  E(vib)   ...       0.00 
freq.    3334.31  E(vib)   ...       0.00 
freq.    3362.15  E(vib)   ...       0.00 

------------
INNER ENERGY
------------

The inner energy is: U= E(el) + E(ZPE) + E(vib) + E(rot) + E(trans)
    E(el)   - is the total energy from the electronic structure calculation
              = E(kin-el) + E(nuc-el) + E(el-el) + E(nuc-nuc)
    E(ZPE)  - the the zero temperature vibrational energy from the frequency calculation
    E(vib)  - the the finite temperature correction to E(ZPE) due to population
              of excited vibrational states
    E(rot)  - is the rotational thermal energy
    E(trans)- is the translational thermal energy

Summary of contributions to the inner energy U:
Electronic energy                ...    -90.61375395 Eh
Zero point energy                ...      0.12282635 Eh      77.07 kcal/mol
Thermal vibrational correction   ...      0.00526975 Eh       3.31 kcal/mol
Thermal rotational correction    ...      0.00141627 Eh       0.89 kcal/mol
Thermal translational correction ...      0.00141627 Eh       0.89 kcal/mol
-----------------------------------------------------------------------
Total thermal energy                    -90.48282531 Eh


Summary of corrections to the electronic energy:
(perhaps to be used in another calculation)
Total thermal correction                  0.00810229 Eh       5.08 kcal/mol
Non-thermal (ZPE) correction              0.12282635 Eh      77.07 kcal/mol
-----------------------------------------------------------------------
Total correction                          0.13092864 Eh      82.16 kcal/mol


--------
ENTHALPY
--------

The enthalpy is H = U + kB*T
                kB is Boltzmann's constant
Total thermal energy              ...    -90.48282531 Eh 
Thermal Enthalpy correction       ...      0.00094421 Eh       0.59 kcal/mol
-----------------------------------------------------------------------
Total Enthalpy                    ...    -90.48188110 Eh


Note: Only C1 symmetry has been detected, increase convergence thresholds 
      if your molecule has a higher symmetry. Symmetry factor of 1.0 is   
      used for the rotational entropy correction. 
 

Note: Rotational entropy computed according to Herzberg 
Infrared and Raman Spectra, Chapter V,1, Van Nostrand Reinhold, 1945 
Point Group:  C1, Symmetry Number:   1  
Rotational constants in cm-1:     0.093484     0.046197     0.039583 

Vibrational entropy computed according to the QRRHO of S. Grimme
Chem.Eur.J. 2012 18 9955 using a reference frequency of 100.0 cm-1


-------
ENTROPY
-------

The entropy contributions are T*S = T*(S(el)+S(vib)+S(rot)+S(trans))
     S(el)   - electronic entropy
     S(vib)  - vibrational entropy
     S(rot)  - rotational entropy
     S(trans)- translational entropy
The entropies will be listed as multiplied by the temperature to get
units of energy

Electronic entropy                ...      0.00000000 Eh      0.00 kcal/mol
Vibrational entropy               ...      0.00881340 Eh      5.53 kcal/mol
Rotational entropy                ...      0.01360580 Eh      8.54 kcal/mol
Translational entropy             ...      0.01923315 Eh     12.07 kcal/mol
-----------------------------------------------------------------------
Final entropy term                ...      0.04165234 Eh     26.14 kcal/mol

In case the symmetry of your molecule has not been determined correctly
or in case you have a reason to use a different symmetry number we print 
out the resulting rotational entropy values for sn=1,12:

 non-linear molecules -----------------------------------
|  sn= 1 | S(rot)=       0.01360580 Eh      8.54 kcal/mol|
|  sn= 2 | S(rot)=       0.01295134 Eh      8.13 kcal/mol|
|  sn= 3 | S(rot)=       0.01256851 Eh      7.89 kcal/mol|
|  sn= 4 | S(rot)=       0.01229688 Eh      7.72 kcal/mol|
|  sn= 5 | S(rot)=       0.01208620 Eh      7.58 kcal/mol|
|  sn= 6 | S(rot)=       0.01191405 Eh      7.48 kcal/mol|
|  sn= 7 | S(rot)=       0.01176851 Eh      7.38 kcal/mol|
|  sn= 8 | S(rot)=       0.01164243 Eh      7.31 kcal/mol|
|  sn= 9 | S(rot)=       0.01153122 Eh      7.24 kcal/mol|
|  sn=10 | S(rot)=       0.01143174 Eh      7.17 kcal/mol|
|  sn=11 | S(rot)=       0.01134175 Eh      7.12 kcal/mol|
|  sn=12 | S(rot)=       0.01125960 Eh      7.07 kcal/mol|
 linear molecules ---------------------------------------
|  Dinfh | S(rot)=       0.00837491 Eh      5.26 kcal/mol|
|  Cinfv | S(rot)=       0.00902936 Eh      5.67 kcal/mol|
 --------------------------------------------------------


-------------------
GIBBS FREE ENERGY
-------------------

The Gibbs free energy is G = H - T*S

Total enthalpy                    ...    -90.48188110 Eh 
Total entropy correction          ...     -0.04165234 Eh    -26.14 kcal/mol
-----------------------------------------------------------------------
Final Gibbs free energy         ...    -90.52353345 Eh

For completeness - the Gibbs free energy minus the electronic energy
G-E(el)                           ...      0.09022050 Eh     56.61 kcal/mol


Maximum memory used throughout the entire PROP-calculation: 68.3 MB

--------------------------------
SUGGESTED CITATIONS FOR THIS RUN
--------------------------------

Below you find a list of papers that are relevant to this ORCA run
We neither can nor want to force you to cite these papers, but we appreciate if you do
You receive ORCA, which is the product of decades of hard work by many enthusiastic individuals, for free
The only thing we kindly ask in return is that you cite our papers,
We deeply appreciate it, if you show your appreciation for ORCA by not just citing the generic ORCA reference.

Please note that relegating all ORCA citations to the supporting information does *not* help us.
SI sections are not indexed - citations you put there will not count into any citation statistics
But we need these citations in order to attract the funding resources that allow us to do what we are doing

Therefore, if you are a happy ORCA user, please consider citing a few of the papers listed below in the main body of your paper

In addition to the list printed below, the program has created the file ts.bibtex that contains the list in bibtex format
You can import this file easily into all common literature databanks and citation aid programs

It goes without saying that in many instances, there are alternative algorithms to achieve similar
results as the ones you have gotten from ORCA. It is, of course, also the case that in some instances
ORCA just re-implements algorithms worked out by others. We are fully aware of that and we are also
fully appreciative of our colleagues work. Hence this citation list should not be read as indicating
that the listed papers, which are focused on our own work, are the only ones worth citing. It simply
meant to make it easier for users to cite ORCA specific papers. It is not a substitute for doing your
own literature research and citing the relevant literature in a scientifically appropriate manner.

List of essential papers. We consider these as the minimum necessary citations

  1. Mueller, M.; Hansen, A.; Grimme, S.
     wB97X-3c: A composite range-separated hybrid DFT method with a molecule-optimized polarized valence double-zeta basis set
     J. Chem. Phys. 2023 158 , 014103
     doi.org/10.1063/5.0133026
  2. Neese, F.
     Software update: the ORCA program system, version 6.0
     WIRES Comput. Molec. Sci. 2025 15(1), e70019
     doi.org/10.1002/wcms.70019

List of papers to cite with high priority. The work reported in these papers was absolutely
necessary for this run to complete.
Our perspective: the developers of density functionals and basis sets usually get cited in chemistry papers
Good! But without the algorithms to do something with them, the functionals or basis sets would not do anything.
Hence, in our opinion, the algorithm design and method developments papers are equally worthy of getting cited

  1. Neese, F.
     An improvement of the resolution of the identity approximation for the formation of the Coulomb matrix
     J. Comp. Chem. 2003 24(14), 1740-1747
     doi.org/10.1002/jcc.10318
  2. Neese, F.; Wennmohs, F.; Hansen, A.; Becker, U.
     Efficient, approximate and parallel Hartree-Fock and hybrid DFT calculations. A 'chain-of-spheres' algorithm for the Hartree-Fock exchange
     Chem. Phys. 2009 356(1-3), 98-109
     doi.org/10.1016/j.chemphys.2008.10.036
  3. Bykov, D.; Petrenko, T.; Izsak, R.; Kossmann, S.; Becker, U.; Valeev, E.; Neese, F.
     Efficient implementation of the analytic second derivatives of Hartree-Fock and hybrid DFT energies: a detailed analysis of different approximations
     Molec. Phys. 2015 113 , 1961-1977
     doi.org/10.1080/00268976.2015.1025114
  4. Caldeweyher, E.; Bannwarth, C.; Grimme, S.
     Extension of the D3 dispersion coefficient model
     J. Chem. Phys. 2017 147 , 034112
     doi.org/10.1063/1.4993215
  5. Caldeweyher, E.; Ehlert, S.; Hansen, A.; Neugebauer, H.; Spicher, S.; Bannwarth, C.; Grimme, S.
     A generally applicable atomic-charge dependent London dispersion correction
     J. Chem. Phys. 2019 150 , 154122
     doi.org/10.1063/1.5090222
  6. Helmich-Paris, B.; de Souza, B.; Neese, F.; Izsák, R.
     An improved chain of spheres for exchange algorithm
     J. Chem. Phys. 2021 155(10), 104109
     doi.org/10.1063/5.0058766
  7. Neese, F.
     The SHARK Integral Generation and Digestion System
     J. Comp. Chem. 2022 44(3), 381
     doi.org/10.1002/jcc.26942

List of suggested additional citations. These are papers that are important in the 'surrounding' of 
of this run, or papers that preceded the highly important papers. If you like your results we are grateful for a citation.

  1. Izsak, R.; Neese, F.
     An overlap fitted chain of spheres exchange method
     J. Chem. Phys. 2011 135 , 144105
     doi.org/10.1063/1.3646921
  2. Izsak, R.; Hansen, A.; Neese, F.
     The resolution of identity and chain of spheres approximations for the LPNO-CCSD singles Fock term
     Molec. Phys. 2012 110 , 2413-2417
     doi.org/10.1080/00268976.2012.687466
  3. Neese, F.
     The ORCA program system
     WIRES Comput. Molec. Sci. 2012 2(1), 73-78
     doi.org/10.1002/wcms.81
  4. Izsak, R.; Neese, F.; Klopper, W.
     Robust fitting techniques in the chain of spheres approximation to the Fock exchange: The role of the complementary space
     J. Chem. Phys. 2013 139 , 
     doi.org/10.1063/1.4819264
  5. Neese, F.
     Software update: the ORCA program system, version 4.0
     WIRES Comput. Molec. Sci. 2018 8(1), 1-6
     doi.org/10.1002/wcms.1327
  6. Neese, F.; Wennmohs, F.; Becker, U.; Riplinger, C.
     The ORCA quantum chemistry program package
     J. Chem. Phys. 2020 152(22), 224108
     doi.org/10.1063/5.0004608
  7. Neese, F.
     Software update: The ORCA program system—Version 5.0
     WIRES Comput. Molec. Sci. 2022 12(1), e1606
     doi.org/10.1002/wcms.1606

List of optional additional citations

  1. Neese, F.
     Approximate second-order SCF convergence for spin unrestricted wavefunctions
     Chem. Phys. Lett. 2000 325(1-3), 93-98
     doi.org/10.1016/s0009-2614(00)00662-x

Timings for individual modules:

Sum of individual times          ...      518.207 sec (=   8.637 min)
Startup calculation              ...        9.918 sec (=   0.165 min)   1.9 %
SCF iterations                   ...      233.554 sec (=   3.893 min)  45.1 %
Property integrals               ...       33.323 sec (=   0.555 min)   6.4 %
SCF Response                     ...       22.078 sec (=   0.368 min)   4.3 %
Property calculations            ...      134.651 sec (=   2.244 min)  26.0 %
SCF Gradient evaluation          ...       84.567 sec (=   1.409 min)  16.3 %
Geometry relaxation              ...        0.115 sec (=   0.002 min)   0.0 %
                             ****ORCA TERMINATED NORMALLY****
TOTAL RUN TIME: 0 days 0 hours 18 minutes 2 seconds 739 msec
