16
Coordinates from ORCA-job ts_scan Relaxed Surface Scan Step 1 E -90.652320344993
  C      -1.802136     -0.477185     -0.400826
  C      -1.103250      0.043430      0.591616
  N      -1.786814      0.955229      1.551114
  O      -2.987710      1.078794      1.437750
  O      -1.099735      1.517357      2.369394
  O       0.167491     -0.086911      0.936907
  C       0.988683     -0.990998      0.222665
  C       1.749128     -0.352650     -0.894576
  C       1.869847      0.946871     -1.099829
  H      -2.851442     -0.251750     -0.478848
  H      -1.335683     -1.102618     -1.143884
  H       1.689330     -1.381095      0.960733
  H       0.396609     -1.834488     -0.133630
  H       2.266449     -1.056286     -1.538315
  H       1.373251      1.666863     -0.462466
  H       2.465984      1.325435     -1.917801
>
16
Coordinates from ORCA-job ts_scan Relaxed Surface Scan Step 2 E -90.652796345944
  C      -1.761824     -0.432924     -0.428358
  C      -1.086824      0.055344      0.596272
  N      -1.789778      0.937552      1.568354
  O      -2.986250      1.074455      1.426551
  O      -1.121580      1.465028      2.424463
  O       0.176401     -0.090043      0.963265
  C       0.996582     -0.994943      0.249371
  C       1.733219     -0.367755     -0.889747
  C       1.825755      0.928916     -1.124543
  H      -2.809266     -0.205545     -0.524337
  H      -1.276027     -1.033651     -1.179473
  H       1.711360     -1.367182      0.982852
  H       0.405068     -1.848397     -0.085208
  H       2.254894     -1.075440     -1.525473
  H       1.323936      1.653163     -0.496211
  H       2.404335      1.301420     -1.957775
>
16
Coordinates from ORCA-job ts_scan Relaxed Surface Scan Step 3 E -90.653193416707
  C      -1.722075     -0.389723     -0.452835
  C      -1.070288      0.066863      0.600779
  N      -1.791584      0.921372      1.583151
  O      -2.982560      1.074340      1.413786
  O      -1.142680      1.412088      2.475230
  O       0.185405     -0.093451      0.987497
  C       1.004350     -0.999195      0.273740
  C       1.719550     -0.382090     -0.884062
  C       1.780217      0.910739     -1.147638
  H      -2.767171     -0.159291     -0.566011
  H      -1.218486     -0.968253     -1.209653
  H       1.730971     -1.356668      1.002681
  H       0.413118     -1.860445     -0.042509
  H       2.249465     -1.092068     -1.510303
  H       1.269114      1.637463     -0.529817
  H       2.342654      1.278320     -1.994034
>
16
Coordinates from ORCA-job ts_scan Relaxed Surface Scan Step 4 E -90.653507249248
  C      -1.683004     -0.339746     -0.473861
  C      -1.053890      0.086775      0.605646
  N      -1.799619      0.895170      1.608709
  O      -2.968728      1.120229      1.377951
  O      -1.191868      1.276246      2.579726
  O       0.197237     -0.078678      1.004317
  C       1.014120     -0.992951      0.299668
  C       1.715428     -0.396985     -0.876920
  C       1.733739      0.885480     -1.191282
  H      -2.727997     -0.115049     -0.598986
  H      -1.158531     -0.888184     -1.238990
  H       1.748525     -1.335259      1.027953
  H       0.420801     -1.860669      0.003891
  H       2.268364     -1.113996     -1.474670
  H       1.198727      1.619339     -0.603006
  H       2.286697      1.238276     -2.050145
>
16
Coordinates from ORCA-job ts_scan Relaxed Surface Scan Step 5 E -90.653699974067
  C      -1.644113     -0.297086     -0.494319
  C      -1.037526      0.097151      0.609821
  N      -1.800094      0.880763      1.619094
  O      -2.963166      1.118019      1.370503
  O      -1.210985      1.231587      2.612768
  O       0.205734     -0.084110      1.026326
  C       1.021598     -0.998351      0.320580
  C       1.704824     -0.409576     -0.869686
  C       1.686754      0.866026     -1.210204
  H      -2.686071     -0.067186     -0.634974
  H      -1.104509     -0.826238     -1.262402
  H       1.765328     -1.329714      1.044185
  H       0.428262     -1.871030      0.038150
  H       2.271162     -1.124364     -1.457390
  H       1.136917      1.597976     -0.633495
  H       2.225885      1.216131     -2.078956
>
16
Coordinates from ORCA-job ts_scan Relaxed Surface Scan Step 6 E -90.653730412685
  C      -1.606497     -0.255671     -0.512218
  C      -1.021278      0.106652      0.613953
  N      -1.799085      0.868202      1.627921
  O      -2.953615      1.125113      1.359622
  O      -1.229999      1.182930      2.645081
  O       0.213598     -0.091710      1.047438
  C       1.029203     -1.004477      0.339683
  C       1.697078     -0.420133     -0.860803
  C       1.637261      0.846230     -1.229054
  H      -2.644719     -0.017955     -0.667308
  H      -1.053949     -0.768788     -1.281746
  H       1.780637     -1.327787      1.058703
  H       0.436504     -1.881064      0.066666
  H       2.283060     -1.129992     -1.435035
  H       1.066838      1.573840     -0.667354
  H       2.164965      1.194610     -2.105547
>
16
Coordinates from ORCA-job ts_scan Relaxed Surface Scan Step 7 E -90.653563213045
  C      -1.569004     -0.214311     -0.528586
  C      -1.005177      0.116119      0.617919
  N      -1.798173      0.855870      1.635771
  O      -2.942252      1.136716      1.347276
  O      -1.251025      1.130224      2.676401
  O       0.221239     -0.098812      1.067302
  C       1.037217     -1.009972      0.358035
  C       1.690600     -0.429774     -0.851831
  C       1.587306      0.825227     -1.247655
  H      -2.603350      0.031664     -0.696870
  H      -1.004956     -0.712830     -1.298971
  H       1.795349     -1.325777      1.073088
  H       0.445639     -1.890376      0.093495
  H       2.297186     -1.133017     -1.412560
  H       0.995629      1.547095     -0.701239
  H       2.103774      1.171954     -2.131571
>
16
Coordinates from ORCA-job ts_scan Relaxed Surface Scan Step 8 E -90.653136176559
  C      -1.531834     -0.176002     -0.541917
  C      -0.988502      0.125496      0.622191
  N      -1.796687      0.844773      1.642443
  O      -2.919954      1.174320      1.325069
  O      -1.282063      1.053582      2.714397
  O       0.229210     -0.104927      1.086739
  C       1.046336     -1.014125      0.375993
  C       1.684972     -0.436743     -0.842232
  C       1.534728      0.803384     -1.267863
  H      -2.561818      0.080028     -0.722306
  H      -0.958436     -0.663192     -1.311967
  H       1.811402     -1.322714      1.086529
  H       0.456975     -1.898577      0.118970
  H       2.315719     -1.131013     -1.387311
  H       0.919016      1.518202     -0.739889
  H       2.040936      1.147507     -2.158844
>
16
Coordinates from ORCA-job ts_scan Relaxed Surface Scan Step 9 E -90.652349559956
  C      -1.493253     -0.138022     -0.556274
  C      -0.972253      0.133184      0.625171
  N      -1.795218      0.835122      1.645139
  O      -2.904957      1.191538      1.309553
  O      -1.305639      1.003493      2.735839
  O       0.236137     -0.113544      1.105620
  C       1.055371     -1.019415      0.393166
  C       1.676490     -0.444637     -0.834868
  C       1.484674      0.782700     -1.280304
  H      -2.518594      0.128270     -0.748874
  H      -0.912672     -0.618146     -1.324540
  H       1.827764     -1.318667      1.099468
  H       0.469066     -1.908899      0.145182
  H       2.321175     -1.130062     -1.374537
  H       0.855896      1.490731     -0.759789
  H       1.976013      1.126353     -2.179950
>
16
Coordinates from ORCA-job ts_scan Relaxed Surface Scan Step 10 E -90.651080824996
  C      -1.454399     -0.104708     -0.569646
  C      -0.956083      0.138149      0.627522
  N      -1.791870      0.829103      1.643710
  O      -2.889054      1.208061      1.291809
  O      -1.324354      0.967222      2.748322
  O       0.242322     -0.125469      1.124111
  C       1.064243     -1.026639      0.408789
  C       1.666479     -0.450975     -0.827780
  C       1.433694      0.764321     -1.286379
  H      -2.474234      0.173993     -0.774739
  H      -0.868873     -0.582524     -1.334267
  H       1.844013     -1.317670      1.110146
  H       0.482157     -1.921182      0.167959
  H       2.321764     -1.126240     -1.367241
  H       0.796192      1.464665     -0.767690
  H       1.908006      1.109893     -2.194625
>
16
Coordinates from ORCA-job ts_scan Relaxed Surface Scan Step 11 E -90.649226670526
  C      -1.415186     -0.081704     -0.581466
  C      -0.940153      0.136430      0.629697
  N      -1.784932      0.830264      1.635773
  O      -2.863669      1.241457      1.263380
  O      -1.342832      0.937936      2.754193
  O       0.244776     -0.148968      1.146340
  C       1.074027     -1.037032      0.423150
  C       1.652175     -0.452907     -0.820241
  C       1.379647      0.751936     -1.284286
  H      -2.426248      0.218702     -0.800251
  H      -0.831478     -0.570181     -1.339182
  H       1.864198     -1.317390      1.116875
  H       0.501537     -1.939210      0.186705
  H       2.313422     -1.116236     -1.367048
  H       0.740264      1.446267     -0.762032
  H       1.834452      1.100634     -2.201607
>
16
Coordinates from ORCA-job ts_scan Relaxed Surface Scan Step 12 E -90.646622810990
  C      -1.375840     -0.065693     -0.593309
  C      -0.925415      0.129663      0.630947
  N      -1.775229      0.836391      1.622454
  O      -2.833766      1.279556      1.229052
  O      -1.357619      0.921129      2.752288
  O       0.244040     -0.179999      1.169100
  C       1.084707     -1.049493      0.436635
  C       1.634662     -0.452960     -0.813222
  C       1.324421      0.744012     -1.273728
  H      -2.375435      0.261542     -0.827356
  H      -0.798735     -0.572386     -1.342092
  H       1.886257     -1.315727      1.122596
  H       0.527787     -1.962463      0.203513
  H       2.293948     -1.104754     -1.375865
  H       0.691314      1.433279     -0.739897
  H       1.754904      1.097903     -2.201115
>
16
Coordinates from ORCA-job ts_scan Relaxed Surface Scan Step 13 E -90.643081610559
  C      -1.336578     -0.054984     -0.605936
  C      -0.912966      0.116956      0.631271
  N      -1.763095      0.845961      1.604699
  O      -2.800412      1.319511      1.190279
  O      -1.367774      0.916549      2.743606
  O       0.238129     -0.220850      1.192600
  C       1.096473     -1.063558      0.449712
  C       1.614254     -0.450605     -0.805535
  C       1.268174      0.740346     -1.256104
  H      -2.320719      0.305989     -0.856982
  H      -0.772780     -0.589380     -1.343396
  H       1.910325     -1.310582      1.128147
  H       0.562519     -1.990677      0.217885
  H       2.263335     -1.092181     -1.391180
  H       0.651586      1.428141     -0.704114
  H       1.669530      1.099363     -2.194950
>
16
Coordinates from ORCA-job ts_scan Relaxed Surface Scan Step 14 E -90.638453540652
  C      -1.297922     -0.048252     -0.620046
  C      -0.903758      0.098349      0.630227
  N      -1.748349      0.857889      1.583026
  O      -2.764413      1.359078      1.148288
  O      -1.371243      0.923821      2.728535
  O       0.226632     -0.270570      1.214943
  C       1.109501     -1.078658      0.462526
  C       1.592657     -0.446133     -0.796644
  C       1.210969      0.739928     -1.231797
  H      -2.261752      0.352823     -0.890007
  H      -0.754706     -0.618833     -1.343614
  H       1.934873     -1.301441      1.135289
  H       0.606068     -2.022449      0.229301
  H       2.223142     -1.078915     -1.411316
  H       0.621391      1.429154     -0.655244
  H       1.576910      1.104209     -2.183465
>
16
Coordinates from ORCA-job ts_scan Relaxed Surface Scan Step 15 E -90.632684398153
  C      -1.260633     -0.049302     -0.636861
  C      -0.900894      0.068238      0.627246
  N      -1.727452      0.875169      1.554067
  O      -2.725194      1.396754      1.100226
  O      -1.357194      0.956646      2.701062
  O       0.203040     -0.341126      1.236580
  C       1.123659     -1.097252      0.474806
  C       1.567101     -0.437986     -0.785457
  C       1.150869      0.746057     -1.195484
  H      -2.193479      0.404850     -0.931827
  H      -0.748245     -0.668526     -1.341129
  H       1.959850     -1.284678      1.144964
  H       0.667044     -2.063049      0.235947
  H       2.166666     -1.062424     -1.438299
  H       0.602466      1.438651     -0.585272
  H       1.472395      1.117978     -2.160568
>
16
Coordinates from ORCA-job ts_scan Relaxed Surface Scan Step 16 E -90.625861266086
  C      -1.226312     -0.057806     -0.659972
  C      -0.907519      0.023469      0.619067
  N      -1.696857      0.896663      1.514967
  O      -2.678736      1.435231      1.045039
  O      -1.317655      1.011891      2.656554
  O       0.160511     -0.441186      1.252927
  C       1.140786     -1.118962      0.488405
  C       1.535523     -0.427675     -0.771272
  C       1.086733      0.758500     -1.143158
  H      -2.111395      0.466432     -0.985369
  H      -0.761886     -0.737802     -1.340799
  H       1.983453     -1.247064      1.164496
  H       0.759655     -2.114771      0.242963
  H       2.084910     -1.043957     -1.473920
  H       0.599696      1.455460     -0.487964
  H       1.349096      1.141577     -2.121962
>
16
Coordinates from ORCA-job ts_scan Relaxed Surface Scan Step 17 E -90.629313109182
  C      -1.305431      0.131536     -0.855507
  C      -1.073269     -0.269094      0.387226
  N      -1.424112      0.640230      1.504643
  O      -2.213828      1.535108      1.279804
  O      -0.883086      0.437963      2.570100
  O      -0.298896     -1.280787      0.724349
  C       1.147730     -0.951290      0.663733
  C       1.442211     -0.511122     -0.711700
  C       1.014840      0.675006     -1.140083
  H      -1.878692      1.026902     -1.038930
  H      -1.088477     -0.528870     -1.674731
  H       1.334807     -0.189723      1.417456
  H       1.638131     -1.874568      0.948719
  H       1.756347     -1.261700     -1.426789
  H       0.758468      1.475098     -0.460918
  H       1.073259      0.945310     -2.187369
>
16
Coordinates from ORCA-job ts_scan Relaxed Surface Scan Step 18 E -90.623912134855
  C      -1.262856      0.124003     -0.868593
  C      -1.071344     -0.282815      0.384312
  N      -1.404524      0.648892      1.485788
  O      -2.167044      1.563322      1.242897
  O      -0.878797      0.445660      2.559159
  O      -0.302556     -1.292134      0.728134
  C       1.156270     -0.957152      0.667351
  C       1.432159     -0.500233     -0.700674
  C       0.955983      0.677928     -1.113389
  H      -1.819800      1.027001     -1.065593
  H      -1.077301     -0.558108     -1.677929
  H       1.335707     -0.206600      1.433329
  H       1.644878     -1.885350      0.937932
  H       1.738715     -1.240645     -1.429431
  H       0.729053      1.478517     -0.424056
  H       0.991458      0.957715     -2.159235
>
16
Coordinates from ORCA-job ts_scan Relaxed Surface Scan Step 19 E -90.618219123527
  C      -1.220305      0.118375     -0.882332
  C      -1.071984     -0.297308      0.381379
  N      -1.385478      0.655866      1.467588
  O      -2.122213      1.587771      1.207979
  O      -0.872215      0.453497      2.547581
  O      -0.309849     -1.303081      0.729768
  C       1.168402     -0.961095      0.669656
  C       1.423814     -0.489924     -0.688907
  C       0.897067      0.679691     -1.086449
  H      -1.766518      1.025605     -1.090969
  H      -1.071996     -0.585156     -1.681658
  H       1.333533     -0.221615      1.448693
  H       1.652636     -1.894609      0.927865
  H       1.722197     -1.220652     -1.430600
  H       0.705584      1.483638     -0.389469
  H       0.917325      0.968997     -2.130123
>
16
Coordinates from ORCA-job ts_scan Relaxed Surface Scan Step 20 E -90.612758738518
  C      -1.178345      0.116759     -0.897864
  C      -1.075341     -0.312627      0.378057
  N      -1.370238      0.662306      1.450668
  O      -2.089423      1.604679      1.176925
  O      -0.861210      0.466695      2.534265
  O      -0.325902     -1.312998      0.729918
  C       1.192425     -0.962827      0.669143
  C       1.419815     -0.482375     -0.676204
  C       0.838501      0.679367     -1.058502
  H      -1.723474      1.023163     -1.114624
  H      -1.074369     -0.607530     -1.686915
  H       1.330159     -0.235185      1.463042
  H       1.663703     -1.904701      0.917989
  H       1.707634     -1.203945     -1.430794
  H       0.692805      1.489280     -0.355987
  H       0.853260      0.979937     -2.099115
>
16
Coordinates from ORCA-job ts_scan Relaxed Surface Scan Step 21 E -90.647299914323
  C      -1.206611      0.133040     -0.972016
  C      -1.377332     -0.349699      0.381364
  N      -1.522659      0.808251      1.416875
  O      -2.168658      1.775458      1.072582
  O      -0.980945      0.653207      2.481954
  O      -1.311683     -1.444325      0.819989
  C       1.899343     -0.958611      0.569823
  C       1.493079     -0.597639     -0.640532
  C       0.730759      0.624007     -0.897508
  H      -1.723091      1.050853     -1.213062
  H      -1.284707     -0.658500     -1.705444
  H       1.700478     -0.346903      1.441443
  H       2.441395     -1.880586      0.727660
  H       1.690876     -1.242328     -1.488859
  H       0.770016      1.372086     -0.112543
  H       0.849739      1.061689     -1.881724
>
16
Coordinates from ORCA-job ts_scan Relaxed Surface Scan Step 22 E -90.658844404745
  C      -1.164267      0.143610     -0.979359
  C      -1.422586     -0.360873      0.363672
  N      -1.499669      0.776657      1.429894
  O      -2.002222      1.823104      1.076959
  O      -1.055012      0.528575      2.520935
  O      -1.490446     -1.466256      0.766666
  C       1.949439     -0.903183      0.575141
  C       1.463491     -0.607544     -0.621398
  C       0.677281      0.604728     -0.901431
  H      -1.688116      1.058665     -1.220565
  H      -1.269683     -0.642246     -1.716900
  H       1.805158     -0.246832      1.425014
  H       2.505599     -1.814548      0.745638
  H       1.613990     -1.294968     -1.446090
  H       0.741346      1.368689     -0.132247
  H       0.835698      1.032421     -1.885928
>
16
Coordinates from ORCA-job ts_scan Relaxed Surface Scan Step 23 E -90.670921868971
  C      -1.126778      0.167907     -0.993856
  C      -1.468416     -0.376367      0.325600
  N      -1.449838      0.703749      1.454239
  O      -1.745522      1.834979      1.128319
  O      -1.149085      0.331820      2.557921
  O      -1.690415     -1.482409      0.660159
  C       1.994996     -0.809093      0.595187
  C       1.415893     -0.620561     -0.580061
  C       0.623723      0.580876     -0.921726
  H      -1.651869      1.088755     -1.216702
  H      -1.270657     -0.595732     -1.749602
  H       1.932496     -0.069063      1.384175
  H       2.550749     -1.711467      0.809613
  H       1.491272     -1.388415     -1.342366
  H       0.717252      1.381237     -0.192704
  H       0.826201      0.963782     -1.918194
