srun: Step created for StepId=663080.59

 *******************************************************************************
 *                                                                             *
 *  --------------------------------                                           *
 *   Amsterdam Modeling Suite (AMS)              2026.103                      *
 *  --------------------------------                                           *
 *                                               r260501 2026-05-01 873454b5   *
 *                                                                             *
 *                                                                             *
 *                              =================                              *
 *                              |               |                              *
 *                              |     A M S     |                              *
 *                              |               |                              *
 *                              =================                              *
 *                                                                             *
 *                                                                             *
 *   Online information and documentation:  https://www.scm.com/support/       *
 *   E-mail:  support@scm.com   info@scm.com                                   *
 *                                                                             *
 *   Scientific publications using AMS results must be properly referenced     *
 *   See the User Manuals (or the web site) for recommended citations          *
 *   The terms and conditions of the End User License Agreement apply to       *
 *   the use of AMS, https://www.scm.com/license-terms/                        *
 *                                                                             *
 **********************  x86_64_linux_intel / intelmpi  ************************
 
 Licensed to: Jong-June Jeon / University of Seoul 2026-06-02 13:44:15
 SCM User ID: u30731
  
 AMS 2026.103  RunTime: Jun04-2026 04:27:35  ShM Nodes: 1  Procs: 1

 AMS jobname: c5_fragB_opt
 AMS jobid  : 2139094165

 Start   directory: /gpfs/home1/yeseo1ee/projects/eda-asm-prediction/ADF_800/adf_outputs/batch_005/qmrxn20_e2_D_E_B_D_B_B/
 Results directory: /gpfs/home1/yeseo1ee/projects/eda-asm-prediction/ADF_800/adf_outputs/batch_005/qmrxn20_e2_D_E_B_D_B_B/c5_fragB_opt.results/
 Scratch directory: /tmp/amstmp_c5_fragB_opt_kid0.2139094165/

 RNG seed: -41238711 295925374 -1848392673 -1769902261 492578705 -101059696 1803347642 -2019337392



                      ************************************************************************
                      *  ADF 2026.103  RunTime: Jun04-2026 04:27:35  ShM Nodes: 1  Procs: 1  *
                      ************************************************************************
  

       ***************************
       *  GEOMETRY OPTIMIZATION  *
       ***************************

Optimization Method                    Quasi Newton
Optimization Coordinates               Delocalized Coordinates
Optimize lattice                       F
 
 ------------------------------------------------------
 Convergence criteria (Hartree,Angstrom)
 ------------------------------------------------------
 Maximum gradient               0.000100000000
 Maximum rms gradient           0.000066666667
 Maximum step allowed           0.010000000000
 Maximum rms step allowed       0.006666666667
 Maximum energy change allowe   0.000170000000
 Maximum stress energy allowe   0.000500000000
 
Initial model Hessian                  Automatic Hessian
 
------------------------------------
Quasi-Newton Optimizer Parameters
------------------------------------
Hessian Update Method                  BFGS
Maximum number of steps                  200
First GDIIS cycle                          0
Maximum GDIIS vectors                      0
Trust radius (bohr)                        0.200000
Trust radius varies                        T
Constraints converged at all steps         T
Use projector                              T
 
 Rigid motions settings for: old optimizer
 Atomic rotations (x,y,z):     T T T
 Atomic translations (x,y,z):  T T T
 Tolerance:                  1.000000000000000E-006

--------
Geometry
--------
Formula: C4H8ClN2O2
Atoms
  Index Symbol   x (angstrom)   y (angstrom)   z (angstrom)
      1      C    -0.17572174     0.06511693    -0.36382320
      2      C     0.01229298     0.01678903     1.13974129
      3     Cl     1.47622486     0.16234571    -1.20918157
      4      C    -0.82733150    -1.21574562    -0.86375042
      5      H    -0.18850712    -2.08680653    -0.72494483
      6      H    -1.76295818    -1.34401544    -0.31421155
      7      H    -1.03689412    -1.08711078    -1.92610203
      8      N    -0.96350734     1.17386045    -0.87664323
      9      H    -0.52639018     2.01631008    -0.51961641
     10      H    -1.84370770     1.08792789    -0.36644316
     11      C     0.52838176    -1.28297708     1.71412673
     12      H     1.52452220    -1.54397144     1.33113560
     13      H     0.59598186    -1.20546727     2.79783637
     14      H    -0.16352596    -2.09319353     1.48134069
     15      N     0.72214845     1.14688486     1.68551958
     16      O     1.36486059     1.00260144     2.73983847
     17      O     0.63683853     2.25990038     1.13347930

Total System Charge              0.00000


----------------
ADF Engine Input
----------------
 
   Basis
     Type TZ2P
     Core None
   End
   XC
     GGA BLYP
     Dispersion GRIMME3 BJDAMP
   End
   Symmetry NOSYM
   NumericalQuality Normal
   Unrestricted No
   SCF
     Iterations 200
     Converge 1.0e-6
   End
   Save TAPE21
 

 Title: *** (NO TITLE) ***

 Using automatic Hessian for delocalized coordinates.
 *** GO1_GOStep1 ***

 Integrated fractional orbital density (NFOD):         1.000

 Energy gradients wrt nuclear displacements
 ==========================================

     Atom      Cartesian (a.u./angstrom)
                 X         Y         Z
 ----------------------------------------
     1 C     0.021224  0.019040  0.001504
     2 C    -0.092968  0.032299  0.044205
     3 Cl   -0.015516 -0.003540 -0.002330
     4 C     0.002332  0.006327  0.006589
     5 H     0.001618  0.002646 -0.001020
     6 H     0.007799  0.008085  0.001018
     7 H     0.002472  0.002549  0.001765
     8 N     0.004850  0.002125 -0.016184
     9 H    -0.004061 -0.022032 -0.000343
    10 H     0.019643 -0.008045  0.008100
    11 C     0.045963 -0.000864 -0.022419
    12 H    -0.000599 -0.005772  0.005455
    13 H    -0.004619  0.000240 -0.004895
    14 H    -0.001275  0.005628  0.003723
    15 N     0.024268 -0.029490 -0.031065
    16 O    -0.018028  0.020626 -0.023037
    17 O     0.006897 -0.029820  0.028934
 ----------------------------------------
 
----------------------------------------------------------------------
Geometry Convergence after Step   1       (Hartree/Angstrom,Angstrom)
----------------------------------------------------------------------
current energy                               -3.28077527 Hartree
energy change                      -3.28077527     0.00017000    F
constrained gradient max            0.09299390     0.00010000    F
constrained gradient rms            0.02101143     0.00006667    F
gradient max                        0.09299390
gradient rms                        0.02101143
cart. step max                      0.05109158     0.01000000    F
cart. step rms                      0.01985291     0.00666667    F
 

--------
Geometry
--------
Formula: C4H8ClN2O2
Atoms
  Index Symbol   x (angstrom)   y (angstrom)   z (angstrom)
      1      C    -0.17045452     0.05165523    -0.37011076
      2      C     0.04872044     0.00416284     1.13091247
      3     Cl     1.48897278     0.17230817    -1.21088845
      4      C    -0.83209995    -1.22831119    -0.89249695
      5      H    -0.19292785    -2.10307119    -0.77603641
      6      H    -1.76940195    -1.38368813    -0.34650545
      7      H    -1.05177687    -1.08429146    -1.95168496
      8      N    -0.97057317     1.18298350    -0.84914833
      9      H    -0.53637561     2.03828648    -0.49471322
     10      H    -1.87182938     1.11628743    -0.36293292
     11      C     0.52647657    -1.28932187     1.74317349
     12      H     1.52371765    -1.55751545     1.36666024
     13      H     0.59011231    -1.19478165     2.82803957
     14      H    -0.16749430    -2.10124552     1.51385647
     15      N     0.73314883     1.16376063     1.68481901
     16      O     1.38689941     1.00844133     2.74516177
     17      O     0.63759302     2.27678993     1.10019607

Total System Charge              0.00000

 *** GO1_GOStep2 ***

 Integrated fractional orbital density (NFOD):         1.000

 Energy gradients wrt nuclear displacements
 ==========================================

     Atom      Cartesian (a.u./angstrom)
                 X         Y         Z
 ----------------------------------------
     1 C     0.030169  0.007880 -0.004538
     2 C    -0.080061  0.016993  0.035311
     3 Cl   -0.009513 -0.002306 -0.000178
     4 C     0.000517  0.000565  0.000732
     5 H    -0.000304  0.001703 -0.001892
     6 H     0.003473  0.003797  0.000794
     7 H     0.000735  0.000841  0.000928
     8 N     0.001939 -0.000474 -0.016080
     9 H    -0.002077 -0.005429  0.002475
    10 H     0.007302 -0.000613  0.009101
    11 C     0.039054 -0.004676 -0.016372
    12 H    -0.001328 -0.002825  0.003666
    13 H    -0.003560 -0.000393 -0.001594
    14 H    -0.001243  0.003089  0.004381
    15 N     0.018759 -0.018590 -0.017136
    16 O    -0.001713  0.002789  0.001663
    17 O    -0.002149 -0.002350 -0.001262
 ----------------------------------------

 dE(predicted):    -0.75087E-02, dE(actual):    -0.69860E-02, Trust radius:    0.400000, all in a.u.
 
----------------------------------------------------------------------
Geometry Convergence after Step   2       (Hartree/Angstrom,Angstrom)
----------------------------------------------------------------------
current energy                               -3.28776129 Hartree
energy change                      -0.00698602     0.00017000    F
constrained gradient max            0.08008302     0.00010000    F
constrained gradient rms            0.01559928     0.00006667    F
gradient max                        0.08008302
gradient rms                        0.01559928
cart. step max                      0.08747791     0.01000000    F
cart. step rms                      0.03114587     0.00666667    F
 

--------
Geometry
--------
Formula: C4H8ClN2O2
Atoms
  Index Symbol   x (angstrom)   y (angstrom)   z (angstrom)
      1      C    -0.15781230     0.05407868    -0.39413137
      2      C     0.13619835     0.01489911     1.09084558
      3     Cl     1.48709804     0.20097993    -1.27481269
      4      C    -0.82070812    -1.24489048    -0.88650949
      5      H    -0.16095467    -2.10741474    -0.78090366
      6      H    -1.74179216    -1.42623865    -0.31615048
      7      H    -1.07707997    -1.11641390    -1.94025053
      8      N    -0.99512669     1.17700356    -0.84767592
      9      H    -0.57294081     2.05191906    -0.51638787
     10      H    -1.90933608     1.10861296    -0.38258768
     11      C     0.50460228    -1.28606582     1.74077444
     12      H     1.49746349    -1.59974214     1.38392923
     13      H     0.55295657    -1.18388561     2.82725445
     14      H    -0.21837997    -2.06786288     1.48792962
     15      N     0.77374441     1.18300511     1.70857879
     16      O     1.39307590     0.99139091     2.78396091
     17      O     0.68169913     2.32307398     1.17443831

Total System Charge              0.00000

 *** GO1_GOStep3 ***

 Integrated fractional orbital density (NFOD):         1.000

 Energy gradients wrt nuclear displacements
 ==========================================

     Atom      Cartesian (a.u./angstrom)
                 X         Y         Z
 ----------------------------------------
     1 C     0.032095 -0.001322 -0.011372
     2 C    -0.054415  0.003803  0.019854
     3 Cl   -0.005488 -0.002590  0.001020
     4 C    -0.001323 -0.000914  0.000116
     5 H    -0.000007  0.000256 -0.000483
     6 H     0.000067  0.000103  0.000788
     7 H    -0.000596 -0.000072  0.000405
     8 N    -0.007670 -0.003933 -0.015614
     9 H    -0.000184  0.001298  0.001068
    10 H    -0.000783  0.003436  0.007046
    11 C     0.026857 -0.006918 -0.009465
    12 H    -0.002248  0.001267  0.000570
    13 H    -0.002728 -0.000859  0.000962
    14 H    -0.002596  0.000329  0.002228
    15 N     0.016558 -0.004876 -0.003609
    16 O    -0.002565  0.003698 -0.001491
    17 O     0.005027  0.007295  0.007979
 ----------------------------------------

 dE(predicted):    -0.70006E-02, dE(actual):    -0.62399E-02, Trust radius:    0.800000, all in a.u.
 
----------------------------------------------------------------------
Geometry Convergence after Step   3       (Hartree/Angstrom,Angstrom)
----------------------------------------------------------------------
current energy                               -3.29400121 Hartree
energy change                      -0.00623992     0.00017000    F
constrained gradient max            0.05442639     0.00010000    F
constrained gradient rms            0.01113011     0.00006667    F
gradient max                        0.05442639
gradient rms                        0.01113011
cart. step max                      0.21122966     0.01000000    F
cart. step rms                      0.06457829     0.00666667    F
 

--------
Geometry
--------
Formula: C4H8ClN2O2
Atoms
  Index Symbol   x (angstrom)   y (angstrom)   z (angstrom)
      1      C    -0.13891497     0.03297033    -0.40190767
      2      C     0.27589146    -0.03709114     1.03561961
      3     Cl     1.47898961     0.26979881    -1.33452413
      4      C    -0.81137707    -1.24611304    -0.93568389
      5      H    -0.13766873    -2.10511001    -0.89043956
      6      H    -1.71522549    -1.47285325    -0.35176699
      7      H    -1.09987409    -1.06699327    -1.97438952
      8      N    -0.96938277     1.19563361    -0.73375343
      9      H    -0.55765895     2.03136280    -0.30515821
     10      H    -1.91105082     1.07474279    -0.34878611
     11      C     0.47765786    -1.29850372     1.79336031
     12      H     1.46082049    -1.71171321     1.50590836
     13      H     0.49679430    -1.12424904     2.87150901
     14      H    -0.28299896    -2.04295393     1.53578352
     15      N     0.78179764     1.19458231     1.63745390
     16      O     1.39963777     1.09658836     2.72272539
     17      O     0.62527009     2.28235068     1.03235105

Total System Charge              0.00000

 *** GO1_GOStep4 ***

 Integrated fractional orbital density (NFOD):         1.000

 Energy gradients wrt nuclear displacements
 ==========================================

     Atom      Cartesian (a.u./angstrom)
                 X         Y         Z
 ----------------------------------------
     1 C     0.023448 -0.007638 -0.008152
     2 C    -0.010036 -0.019042  0.001806
     3 Cl   -0.010188  0.003536  0.009666
     4 C    -0.004268 -0.005057 -0.003333
     5 H    -0.000053 -0.000512 -0.000379
     6 H    -0.001450 -0.002096  0.000247
     7 H    -0.001201  0.000680 -0.000188
     8 N     0.007247  0.012996  0.000997
     9 H     0.001006  0.003819  0.003491
    10 H     0.000958  0.004493  0.005876
    11 C     0.001745 -0.005826  0.003637
    12 H    -0.000492  0.004551 -0.002973
    13 H    -0.000254 -0.001208  0.000482
    14 H    -0.000832 -0.000431  0.000391
    15 N     0.006960  0.032877  0.007112
    16 O    -0.003469  0.004711 -0.013622
    17 O    -0.009121 -0.025853 -0.005058
 ----------------------------------------

 dE(predicted):    -0.62997E-02, dE(actual):    -0.39102E-02, Trust radius:    0.800000, all in a.u.
 
----------------------------------------------------------------------
Geometry Convergence after Step   4       (Hartree/Angstrom,Angstrom)
----------------------------------------------------------------------
current energy                               -3.29791141 Hartree
energy change                      -0.00391020     0.00017000    F
constrained gradient max            0.03285842     0.00010000    F
constrained gradient rms            0.00883407     0.00006667    F
gradient max                        0.03285842
gradient rms                        0.00883407
cart. step max                      0.21210027     0.01000000    F
cart. step rms                      0.05885582     0.00666667    F
 

--------
Geometry
--------
Formula: C4H8ClN2O2
Atoms
  Index Symbol   x (angstrom)   y (angstrom)   z (angstrom)
      1      C    -0.14612833     0.05671286    -0.40510490
      2      C     0.31927699    -0.01569600     1.01272255
      3     Cl     1.44543407     0.35951566    -1.37641889
      4      C    -0.76771097    -1.24469737    -0.94050020
      5      H    -0.05730625    -2.07424162    -0.90641090
      6      H    -1.65582160    -1.51233295    -0.35041224
      7      H    -1.07168435    -1.07160132    -1.97585019
      8      N    -1.03855303     1.17091538    -0.72019607
      9      H    -0.70287380     2.01596413    -0.24856517
     10      H    -1.98803196     0.96746070    -0.39839896
     11      C     0.42784386    -1.26435025     1.80079386
     12      H     1.37854475    -1.76183386     1.53173031
     13      H     0.46418824    -1.06042194     2.87297728
     14      H    -0.38153212    -1.96054071     1.55955283
     15      N     0.86358332     1.17799780     1.64150332
     16      O     1.44610821     1.02018262     2.74473651
     17      O     0.83737037     2.26941594     1.01614249

Total System Charge              0.00000

 *** GO1_GOStep5 ***

 Integrated fractional orbital density (NFOD):         1.000

 Energy gradients wrt nuclear displacements
 ==========================================

     Atom      Cartesian (a.u./angstrom)
                 X         Y         Z
 ----------------------------------------
     1 C     0.015375 -0.004770 -0.000594
     2 C    -0.001222 -0.017016 -0.010739
     3 Cl   -0.009191  0.003766  0.010421
     4 C    -0.004066 -0.003311 -0.003788
     5 H     0.000575 -0.000685 -0.000347
     6 H    -0.000756 -0.001492  0.000443
     7 H    -0.001101  0.000694 -0.000063
     8 N    -0.002788  0.003856 -0.011888
     9 H    -0.001310 -0.000822  0.003205
    10 H     0.000950  0.002938  0.004256
    11 C     0.000474  0.003717  0.005886
    12 H     0.000748  0.003208 -0.003183
    13 H     0.000555 -0.000878  0.001156
    14 H    -0.000094  0.000829 -0.000095
    15 N    -0.006299  0.026590  0.018828
    16 O     0.000725 -0.004007 -0.011622
    17 O     0.007426 -0.012618 -0.001878
 ----------------------------------------

 dE(predicted):    -0.47573E-02, dE(actual):    -0.26294E-02, Trust radius:    0.800000, all in a.u.
 
----------------------------------------------------------------------
Geometry Convergence after Step   5       (Hartree/Angstrom,Angstrom)
----------------------------------------------------------------------
current energy                               -3.30054076 Hartree
energy change                      -0.00262935     0.00017000    F
constrained gradient max            0.02657369     0.00010000    F
constrained gradient rms            0.00723305     0.00006667    F
gradient max                        0.02657369
gradient rms                        0.00723305
cart. step max                      0.16317657     0.01000000    F
cart. step rms                      0.06296224     0.00666667    F
 

--------
Geometry
--------
Formula: C4H8ClN2O2
Atoms
  Index Symbol   x (angstrom)   y (angstrom)   z (angstrom)
      1      C    -0.10765288     0.07727276    -0.42990328
      2      C     0.45038823     0.00240567     0.95090121
      3     Cl     1.42608707     0.28943002    -1.53959546
      4      C    -0.75648062    -1.23176747    -0.89979545
      5      H    -0.05460221    -2.06749924    -0.85932990
      6      H    -1.62817350    -1.46806650    -0.27375396
      7      H    -1.09018687    -1.09429428    -1.93123804
      8      N    -1.02930482     1.16698698    -0.71519547
      9      H    -0.74017099     2.02051973    -0.22624731
     10      H    -1.98981526     0.91902150    -0.46561183
     11      C     0.44352305    -1.23580752     1.75691492
     12      H     1.34479281    -1.83781456     1.52554419
     13      H     0.49277306    -1.00593478     2.82293276
     14      H    -0.41980509    -1.86660548     1.52452651
     15      N     1.01410043     1.15024081     1.62094987
     16      O     1.28562191     0.95553849     2.84993582
     17      O     0.73161309     2.29882295     1.14726706

Total System Charge              0.00000

 *** GO1_GOStep6 ***

 Integrated fractional orbital density (NFOD):         1.000

 Energy gradients wrt nuclear displacements
 ==========================================

     Atom      Cartesian (a.u./angstrom)
                 X         Y         Z
 ----------------------------------------
     1 C     0.018562 -0.004090  0.008139
     2 C    -0.020674  0.000378 -0.001152
     3 Cl   -0.008558 -0.004710  0.002718
     4 C     0.000816  0.002438 -0.001633
     5 H     0.000733 -0.000604  0.000324
     6 H    -0.000142 -0.000476  0.001253
     7 H    -0.000784  0.000274  0.000080
     8 N    -0.012051  0.000035 -0.013973
     9 H     0.000589  0.003093  0.002293
    10 H    -0.003439  0.001369  0.003806
    11 C    -0.003568  0.016031  0.003581
    12 H     0.001707  0.000448 -0.001054
    13 H     0.002204  0.001239  0.002535
    14 H    -0.000539 -0.000298  0.000437
    15 N     0.105839  0.008722 -0.031507
    16 O    -0.042635 -0.021981  0.013895
    17 O    -0.038062 -0.001868  0.010259
 ----------------------------------------

 dE(predicted):    -0.39759E-02, dE(actual):     0.11270E-01, Trust radius:    0.186416, all in a.u.
 
----------------------------------------------------------------------
Geometry Convergence after Step   6       (Hartree/Angstrom,Angstrom)
----------------------------------------------------------------------
current energy                               -3.28927043 Hartree
energy change                       0.01127033     0.00017000    F
constrained gradient max            0.10578687     0.00010000    F
constrained gradient rms            0.01877516     0.00006667    F
gradient max                        0.10578687
gradient rms                        0.01877516
cart. step max                      0.09120106     0.01000000    F
cart. step rms                      0.02593570     0.00666667    F
 

--------
Geometry
--------
Formula: C4H8ClN2O2
Atoms
  Index Symbol   x (angstrom)   y (angstrom)   z (angstrom)
      1      C    -0.11326961     0.07722547    -0.41439505
      2      C     0.43190117    -0.00549256     0.97270015
      3     Cl     1.43373954     0.31351563    -1.50441040
      4      C    -0.74903553    -1.23064476    -0.90293309
      5      H    -0.04290168    -2.06240735    -0.86309510
      6      H    -1.62550809    -1.47695256    -0.28835933
      7      H    -1.07244450    -1.08542150    -1.93642600
      8      N    -1.03305771     1.16394519    -0.69459247
      9      H    -0.75206036     2.01098077    -0.19334799
     10      H    -1.99320186     0.90661190    -0.45809684
     11      C     0.42346083    -1.26140652     1.75800967
     12      H     1.32796821    -1.85773394     1.52727558
     13      H     0.45844373    -1.05124666     2.82772911
     14      H    -0.43528251    -1.89002834     1.50447627
     15      N     0.97818037     1.16778945     1.61580104
     16      O     1.36314348     1.04673955     2.82049184
     17      O     0.77263191     2.30697532     1.08747425

Total System Charge              0.00000

 *** GO1_GOStep7 ***

 Integrated fractional orbital density (NFOD):         1.000

 Energy gradients wrt nuclear displacements
 ==========================================

     Atom      Cartesian (a.u./angstrom)
                 X         Y         Z
 ----------------------------------------
     1 C     0.014924 -0.000759  0.006861
     2 C    -0.011947 -0.008988 -0.001966
     3 Cl   -0.007751 -0.003115  0.003186
     4 C     0.000043  0.001405 -0.000539
     5 H     0.000508 -0.000205  0.000375
     6 H     0.000468 -0.000216  0.000971
     7 H    -0.000604  0.000505  0.000240
     8 N    -0.008169  0.000649 -0.012793
     9 H    -0.000635  0.000282  0.002111
    10 H    -0.001312  0.001165  0.003996
    11 C    -0.009090  0.003449 -0.000165
    12 H     0.001233 -0.000277 -0.000620
    13 H     0.000979 -0.001121 -0.001587
    14 H    -0.000048 -0.001441 -0.001195
    15 N     0.061925 -0.005008 -0.029080
    16 O    -0.019583  0.005085  0.018582
    17 O    -0.020941  0.008587  0.011624
 ----------------------------------------

 dE(predicted):    -0.92128E-02, dE(actual):    -0.83791E-02, Trust radius:    0.372833, all in a.u.
 
----------------------------------------------------------------------
Geometry Convergence after Step   7       (Hartree/Angstrom,Angstrom)
----------------------------------------------------------------------
current energy                               -3.29764950 Hartree
energy change                      -0.00837907     0.00017000    F
constrained gradient max            0.06188916     0.00010000    F
constrained gradient rms            0.01175673     0.00006667    F
gradient max                        0.06188916
gradient rms                        0.01175673
cart. step max                      0.11288179     0.01000000    F
cart. step rms                      0.04692275     0.00666667    F
 

--------
Geometry
--------
Formula: C4H8ClN2O2
Atoms
  Index Symbol   x (angstrom)   y (angstrom)   z (angstrom)
      1      C    -0.14117527     0.06031369    -0.42350433
      2      C     0.37980613    -0.03341609     0.97407966
      3     Cl     1.44149555     0.33184444    -1.46327922
      4      C    -0.77319322    -1.22969010    -0.96330567
      5      H    -0.07442837    -2.06770322    -0.92484839
      6      H    -1.67071235    -1.48542810    -0.38395869
      7      H    -1.06352080    -1.05563516    -2.00217833
      8      N    -1.02189647     1.17730347    -0.67535388
      9      H    -0.72303657     1.99986398    -0.14733769
     10      H    -1.99347061     0.93857298    -0.47605315
     11      C     0.44916625    -1.24618073     1.82142924
     12      H     1.38064006    -1.80405814     1.60749327
     13      H     0.48581276    -0.97304881     2.87865446
     14      H    -0.38139203    -1.92753944     1.61735806
     15      N     0.87207107     1.14296928     1.62636519
     16      O     1.43564664     0.98097635     2.73822635
     17      O     0.77089461     2.26330466     1.05451475

Total System Charge              0.00000

 *** GO1_GOStep8 ***

 Integrated fractional orbital density (NFOD):         1.000

 Energy gradients wrt nuclear displacements
 ==========================================

     Atom      Cartesian (a.u./angstrom)
                 X         Y         Z
 ----------------------------------------
     1 C     0.008730  0.000779 -0.002326
     2 C     0.003479 -0.007123 -0.014078
     3 Cl   -0.007824  0.000463  0.005174
     4 C    -0.001652 -0.001869 -0.004070
     5 H    -0.000207 -0.000185 -0.000731
     6 H    -0.000089 -0.000391 -0.000910
     7 H    -0.000554  0.000544  0.000329
     8 N     0.001533  0.005770 -0.005223
     9 H    -0.000821 -0.001277  0.002267
    10 H     0.000970  0.001063  0.003996
    11 C     0.002429  0.014513  0.011828
    12 H     0.001200  0.000312 -0.001013
    13 H     0.002013  0.001261  0.002867
    14 H     0.002010  0.002678  0.002013
    15 N    -0.002960  0.006374  0.013617
    16 O    -0.007958 -0.009734 -0.013488
    17 O    -0.000298 -0.013176 -0.000254
 ----------------------------------------

 dE(predicted):    -0.61541E-02, dE(actual):    -0.34839E-02, Trust radius:    0.372833, all in a.u.
 
----------------------------------------------------------------------
Geometry Convergence after Step   8       (Hartree/Angstrom,Angstrom)
----------------------------------------------------------------------
current energy                               -3.30113337 Hartree
energy change                      -0.00348387     0.00017000    F
constrained gradient max            0.01451582     0.00010000    F
constrained gradient rms            0.00574212     0.00006667    F
gradient max                        0.01451582
gradient rms                        0.00574212
cart. step max                      0.12643617     0.01000000    F
cart. step rms                      0.04185267     0.00666667    F
 

--------
Geometry
--------
Formula: C4H8ClN2O2
Atoms
  Index Symbol   x (angstrom)   y (angstrom)   z (angstrom)
      1      C    -0.13776961     0.08196832    -0.40361931
      2      C     0.37588302     0.00439809     0.99852747
      3     Cl     1.45430418     0.30847360    -1.45087813
      4      C    -0.75922161    -1.22926024    -0.89620552
      5      H    -0.05961077    -2.06277269    -0.81199315
      6      H    -1.66285018    -1.45997969    -0.31603604
      7      H    -1.03584783    -1.10311397    -1.94562926
      8      N    -1.02655121     1.17949500    -0.69335626
      9      H    -0.75409429     2.02269464    -0.18342576
     10      H    -2.00204996     0.92919997    -0.52930423
     11      C     0.43061168    -1.26793003     1.76103874
     12      H     1.36504066    -1.81540021     1.53744455
     13      H     0.43552433    -1.06651451     2.83425337
     14      H    -0.39636546    -1.93197300     1.49092189
     15      N     0.88839384     1.17457545     1.64602401
     16      O     1.50897911     1.00503652     2.73134843
     17      O     0.74833148     2.30355184     1.08919082

Total System Charge              0.00000

 *** GO1_GOStep9 ***

 Integrated fractional orbital density (NFOD):         1.000

 Energy gradients wrt nuclear displacements
 ==========================================

     Atom      Cartesian (a.u./angstrom)
                 X         Y         Z
 ----------------------------------------
     1 C     0.010936 -0.001397 -0.003451
     2 C     0.002581 -0.000934 -0.000953
     3 Cl   -0.006857 -0.001669  0.003338
     4 C     0.000769 -0.001217  0.002561
     5 H     0.000414 -0.000442  0.000863
     6 H     0.000303 -0.000106  0.000198
     7 H    -0.000105  0.000439  0.000506
     8 N    -0.002015  0.003474 -0.006213
     9 H    -0.000094  0.000578  0.001292
    10 H    -0.001042 -0.000360  0.003683
    11 C    -0.002512 -0.000458 -0.002089
    12 H     0.000193 -0.001274 -0.000340
    13 H    -0.000110  0.000760 -0.001098
    14 H    -0.000338 -0.001239 -0.001409
    15 N    -0.002685  0.009402  0.010447
    16 O     0.000172 -0.002651 -0.004387
    17 O     0.000390 -0.002905 -0.002946
 ----------------------------------------

 dE(predicted):    -0.19831E-02, dE(actual):    -0.16557E-02, Trust radius:    0.372833, all in a.u.
 
----------------------------------------------------------------------
Geometry Convergence after Step   9       (Hartree/Angstrom,Angstrom)
----------------------------------------------------------------------
current energy                               -3.30278905 Hartree
energy change                      -0.00165567     0.00017000    F
constrained gradient max            0.01096282     0.00010000    F
constrained gradient rms            0.00328710     0.00006667    F
gradient max                        0.01096282
gradient rms                        0.00328710
cart. step max                      0.05174261     0.01000000    F
cart. step rms                      0.02114030     0.00666667    F
 

--------
Geometry
--------
Formula: C4H8ClN2O2
Atoms
  Index Symbol   x (angstrom)   y (angstrom)   z (angstrom)
      1      C    -0.14672387     0.07562135    -0.39368392
      2      C     0.37373400    -0.00555935     1.00760140
      3     Cl     1.45911394     0.33332841    -1.42241200
      4      C    -0.76206695    -1.22579628    -0.92156520
      5      H    -0.06225353    -2.06000570    -0.85023222
      6      H    -1.67172095    -1.47170949    -0.35660283
      7      H    -1.02825208    -1.07840202    -1.97117944
      8      N    -1.03622657     1.17174200    -0.67731763
      9      H    -0.79031709     2.00571692    -0.13951635
     10      H    -2.01703612     0.91329870    -0.56977952
     11      C     0.42716236    -1.26753006     1.78841296
     12      H     1.35330630    -1.82449583     1.55614781
     13      H     0.45271254    -1.05397944     2.85930954
     14      H    -0.41060610    -1.92709021     1.54266450
     15      N     0.91921159     1.16790514     1.62409861
     16      O     1.53254680     1.02238465     2.72026167
     17      O     0.78012312     2.29702028     1.06209424

Total System Charge              0.00000

 *** GO1_GOStep10 ***

 Integrated fractional orbital density (NFOD):         1.000

 Energy gradients wrt nuclear displacements
 ==========================================

     Atom      Cartesian (a.u./angstrom)
                 X         Y         Z
 ----------------------------------------
     1 C     0.011473 -0.002597 -0.000739
     2 C    -0.000201 -0.004118  0.001182
     3 Cl   -0.007058  0.000836  0.005331
     4 C    -0.001738 -0.000451 -0.001866
     5 H    -0.000101  0.000210  0.000038
     6 H    -0.000295 -0.000291 -0.000322
     7 H    -0.000424 -0.000127  0.000016
     8 N    -0.001058  0.001681 -0.008950
     9 H    -0.000673  0.000424  0.002519
    10 H    -0.001810  0.000271  0.003416
    11 C    -0.002178 -0.001118  0.000273
    12 H     0.000010 -0.000560 -0.000211
    13 H     0.000049 -0.000195 -0.000604
    14 H     0.000537 -0.000757  0.000150
    15 N     0.001906 -0.000429 -0.002305
    16 O     0.000488  0.003201  0.001825
    17 O     0.001074  0.004019  0.000246
 ----------------------------------------

 dE(predicted):    -0.40283E-03, dE(actual):    -0.26197E-03, Trust radius:    0.372833, all in a.u.
 
----------------------------------------------------------------------
Geometry Convergence after Step  10       (Hartree/Angstrom,Angstrom)
----------------------------------------------------------------------
current energy                               -3.30305101 Hartree
energy change                      -0.00026197     0.00017000    F
constrained gradient max            0.01149764     0.00010000    F
constrained gradient rms            0.00279187     0.00006667    F
gradient max                        0.01149764
gradient rms                        0.00279187
cart. step max                      0.06061117     0.01000000    F
cart. step rms                      0.01425462     0.00666667    F
 

--------
Geometry
--------
Formula: C4H8ClN2O2
Atoms
  Index Symbol   x (angstrom)   y (angstrom)   z (angstrom)
      1      C    -0.15080719     0.07773622    -0.39296039
      2      C     0.37550246    -0.00465422     1.00581620
      3     Cl     1.46479983     0.30245696    -1.43006548
      4      C    -0.77211851    -1.22167792    -0.91468362
      5      H    -0.07850738    -2.06023579    -0.83542361
      6      H    -1.68556630    -1.45689934    -0.35135410
      7      H    -1.03196474    -1.08002779    -1.96673379
      8      N    -1.02760095     1.17713373    -0.68122569
      9      H    -0.79675605     2.00741861    -0.13316411
     10      H    -2.01250037     0.92254370    -0.63039069
     11      C     0.44058335    -1.26563393     1.78583352
     12      H     1.37274745    -1.81305109     1.55577916
     13      H     0.46327970    -1.05284320     2.85718761
     14      H    -0.39122034    -1.93188065     1.53878242
     15      N     0.90950427     1.16277630     1.63521543
     16      O     1.54621895     1.00852243     2.71862353
     17      O     0.74711321     2.30076509     1.09706525

Total System Charge              0.00000

 *** GO1_GOStep11 ***

 Integrated fractional orbital density (NFOD):         1.000

 Energy gradients wrt nuclear displacements
 ==========================================

     Atom      Cartesian (a.u./angstrom)
                 X         Y         Z
 ----------------------------------------
     1 C     0.012793 -0.002882 -0.001489
     2 C    -0.000005 -0.003278 -0.001135
     3 Cl   -0.008140 -0.000617  0.004057
     4 C    -0.000809  0.000650 -0.001702
     5 H     0.000006  0.000106  0.000178
     6 H    -0.000152 -0.000040 -0.000337
     7 H    -0.000223 -0.000082 -0.000027
     8 N    -0.002704  0.002643 -0.008178
     9 H    -0.000701 -0.000144  0.001819
    10 H    -0.001263  0.000254  0.003240
    11 C    -0.001386  0.001378  0.001167
    12 H     0.000130 -0.000309 -0.000135
    13 H     0.000170 -0.000397 -0.000145
    14 H     0.000449 -0.000191  0.000142
    15 N    -0.002277 -0.004169 -0.002582
    16 O     0.002451  0.003344  0.003619
    17 O     0.001661  0.003734  0.001508
 ----------------------------------------

 dE(predicted):    -0.21605E-03, dE(actual):    -0.37326E-03, Trust radius:    0.372833, all in a.u.
 
----------------------------------------------------------------------
Geometry Convergence after Step  11       (Hartree/Angstrom,Angstrom)
----------------------------------------------------------------------
current energy                               -3.30342428 Hartree
energy change                      -0.00037326     0.00017000    F
constrained gradient max            0.01282117     0.00010000    F
constrained gradient rms            0.00298655     0.00006667    F
gradient max                        0.01282117
gradient rms                        0.00298655
cart. step max                      0.16790805     0.01000000    F
cart. step rms                      0.03398614     0.00666667    F
 

--------
Geometry
--------
Formula: C4H8ClN2O2
Atoms
  Index Symbol   x (angstrom)   y (angstrom)   z (angstrom)
      1      C    -0.17277170     0.08561207    -0.38134861
      2      C     0.36952513    -0.00080548     1.00878248
      3     Cl     1.49091637     0.25077253    -1.40986653
      4      C    -0.79425666    -1.21556915    -0.89049996
      5      H    -0.10648915    -2.05690749    -0.79433824
      6      H    -1.71388244    -1.43725809    -0.33122232
      7      H    -1.04051576    -1.08964746    -1.94798985
      8      N    -1.01354025     1.19082466    -0.67919606
      9      H    -0.82528860     2.01421260    -0.10993107
     10      H    -1.99368878     0.95815753    -0.79829873
     11      C     0.46641732    -1.26587974     1.77596030
     12      H     1.41050466    -1.78762780     1.53858754
     13      H     0.49109547    -1.06261213     2.84995962
     14      H    -0.35441994    -1.94452610     1.52677765
     15      N     0.89114426     1.15333360     1.65053147
     16      O     1.58605184     0.97728701     2.69532991
     17      O     0.68190563     2.30308249     1.15506403

Total System Charge              0.00000

 *** GO1_GOStep12 ***

 Integrated fractional orbital density (NFOD):         1.000

 Energy gradients wrt nuclear displacements
 ==========================================

     Atom      Cartesian (a.u./angstrom)
                 X         Y         Z
 ----------------------------------------
     1 C     0.015149 -0.002728 -0.005936
     2 C     0.001916 -0.000327 -0.001407
     3 Cl   -0.010618 -0.001004  0.004777
     4 C     0.001112  0.000713  0.000900
     5 H     0.000072 -0.000508  0.000555
     6 H    -0.000178 -0.000194  0.000106
     7 H     0.000534  0.000103  0.000127
     8 N    -0.004964  0.005371 -0.007008
     9 H    -0.001131 -0.001119  0.000699
    10 H     0.000433  0.000778  0.003778
    11 C    -0.000298  0.005080  0.001552
    12 H     0.000373  0.000603 -0.000040
    13 H     0.000464 -0.000580  0.000986
    14 H    -0.000273  0.000580 -0.000326
    15 N    -0.009020 -0.008076 -0.002018
    16 O     0.003955 -0.000186  0.002395
    17 O     0.002474  0.001494  0.000861
 ----------------------------------------

 dE(predicted):    -0.70916E-03, dE(actual):    -0.10412E-02, Trust radius:    0.745666, all in a.u.
 
----------------------------------------------------------------------
Geometry Convergence after Step  12       (Hartree/Angstrom,Angstrom)
----------------------------------------------------------------------
current energy                               -3.30446551 Hartree
energy change                      -0.00104123     0.00017000    F
constrained gradient max            0.01518948     0.00010000    F
constrained gradient rms            0.00383626     0.00006667    F
gradient max                        0.01518948
gradient rms                        0.00383626
cart. step max                      0.21654500     0.01000000    F
cart. step rms                      0.04778104     0.00666667    F
 

--------
Geometry
--------
Formula: C4H8ClN2O2
Atoms
  Index Symbol   x (angstrom)   y (angstrom)   z (angstrom)
      1      C    -0.20927671     0.09273075    -0.35948510
      2      C     0.35554895     0.00461047     1.01859396
      3     Cl     1.52899022     0.16913560    -1.36864520
      4      C    -0.83265982    -1.20767464    -0.85788234
      5      H    -0.15317966    -2.05316505    -0.74573628
      6      H    -1.75924725    -1.41300866    -0.30328862
      7      H    -1.06391377    -1.09789230    -1.92092793
      8      N    -0.99750115     1.20061971    -0.67367150
      9      H    -0.85261026     2.02469900    -0.09951463
     10      H    -1.92972471     1.02068147    -1.01484373
     11      C     0.50874218    -1.26966055     1.75911317
     12      H     1.46898623    -1.74884830     1.50290777
     13      H     0.54202602    -1.08411236     2.83708664
     14      H    -0.29439906    -1.96844694     1.50938448
     15      N     0.85831004     1.14570574     1.67349690
     16      O     1.62019047     0.95327821     2.66778447
     17      O     0.58242568     2.30379693     1.23392956

Total System Charge              0.00000

 *** GO1_GOStep13 ***

 Integrated fractional orbital density (NFOD):         1.000

 Energy gradients wrt nuclear displacements
 ==========================================

     Atom      Cartesian (a.u./angstrom)
                 X         Y         Z
 ----------------------------------------
     1 C     0.019470  0.000164 -0.012892
     2 C     0.003432  0.005281  0.002492
     3 Cl   -0.015474 -0.001085  0.006606
     4 C     0.002404  0.001780  0.003709
     5 H     0.000137 -0.000876  0.000991
     6 H    -0.000213 -0.000354  0.000733
     7 H     0.001382  0.000103  0.000163
     8 N    -0.005107  0.005741 -0.008709
     9 H    -0.002458 -0.003674 -0.000676
    10 H     0.002982  0.001460  0.007319
    11 C     0.000276  0.008102  0.001274
    12 H     0.000524  0.001760  0.000349
    13 H     0.000959 -0.000639  0.002198
    14 H    -0.001147  0.001452 -0.000803
    15 N    -0.015250 -0.012057 -0.002723
    16 O     0.004802 -0.004245 -0.000003
    17 O     0.003283 -0.002914 -0.000027
 ----------------------------------------

 dE(predicted):    -0.19647E-02, dE(actual):    -0.18142E-02, Trust radius:    0.745666, all in a.u.
 
----------------------------------------------------------------------
Geometry Convergence after Step  13       (Hartree/Angstrom,Angstrom)
----------------------------------------------------------------------
current energy                               -3.30627966 Hartree
energy change                      -0.00181415     0.00017000    F
constrained gradient max            0.01950575     0.00010000    F
constrained gradient rms            0.00568555     0.00006667    F
gradient max                        0.01950575
gradient rms                        0.00568555
cart. step max                      0.21714685     0.01000000    F
cart. step rms                      0.05746399     0.00666667    F
 

--------
Geometry
--------
Formula: C4H8ClN2O2
Atoms
  Index Symbol   x (angstrom)   y (angstrom)   z (angstrom)
      1      C    -0.26444654     0.09221303    -0.32834529
      2      C     0.33461748     0.00938430     1.03039797
      3     Cl     1.57146979     0.06278839    -1.30705004
      4      C    -0.88696103    -1.20632042    -0.82457668
      5      H    -0.21600801    -2.05656435    -0.70204251
      6      H    -1.82120266    -1.39854171    -0.27751820
      7      H    -1.10356791    -1.10694414    -1.89226838
      8      N    -0.98788118     1.20270739    -0.65933149
      9      H    -0.85253063     2.04319520    -0.11215010
     10      H    -1.80829852     1.11220826    -1.23199058
     11      C     0.56533814    -1.27317133     1.73418354
     12      H     1.54069124    -1.69833547     1.44615887
     13      H     0.61760848    -1.10875047     2.81569837
     14      H    -0.21460175    -1.99900178     1.48967389
     15      N     0.81045757     1.14348634     1.70237279
     16      O     1.63429256     0.94982176     2.64582092
     17      O     0.45373035     2.30427409     1.32926855

Total System Charge              0.00000

 *** GO1_GOStep14 ***

 Integrated fractional orbital density (NFOD):         1.000

 Energy gradients wrt nuclear displacements
 ==========================================

     Atom      Cartesian (a.u./angstrom)
                 X         Y         Z
 ----------------------------------------
     1 C     0.021158  0.006144 -0.022820
     2 C     0.003392  0.010445  0.007355
     3 Cl   -0.020276 -0.000933  0.008876
     4 C     0.002961  0.001886  0.006179
     5 H     0.000116 -0.001656  0.000927
     6 H    -0.000277 -0.000633  0.001210
     7 H     0.002235 -0.000162  0.000004
     8 N     0.001644  0.001719 -0.009919
     9 H    -0.005702 -0.006013 -0.002890
    10 H     0.003174  0.002610  0.012950
    11 C    -0.000360  0.010901 -0.000221
    12 H     0.001034  0.002523  0.000565
    13 H     0.001796 -0.000444  0.003183
    14 H    -0.001844  0.002009 -0.001241
    15 N    -0.019633 -0.016427 -0.004465
    16 O     0.006676 -0.006690  0.000059
    17 O     0.003906 -0.005278  0.000248
 ----------------------------------------

 dE(predicted):    -0.29084E-02, dE(actual):    -0.33810E-02, Trust radius:    0.745666, all in a.u.
 
----------------------------------------------------------------------
Geometry Convergence after Step  14       (Hartree/Angstrom,Angstrom)
----------------------------------------------------------------------
current energy                               -3.30966064 Hartree
energy change                      -0.00338098     0.00017000    F
constrained gradient max            0.02282646     0.00010000    F
constrained gradient rms            0.00774012     0.00006667    F
gradient max                        0.02282646
gradient rms                        0.00774012
cart. step max                      0.20957867     0.01000000    F
cart. step rms                      0.06459359     0.00666667    F
 

--------
Geometry
--------
Formula: C4H8ClN2O2
Atoms
  Index Symbol   x (angstrom)   y (angstrom)   z (angstrom)
      1      C    -0.34357122     0.07967685    -0.28112530
      2      C     0.30913347     0.00665115     1.04272790
      3     Cl     1.61080435    -0.04803593    -1.24090516
      4      C    -0.95372461    -1.21150713    -0.80008684
      5      H    -0.28287105    -2.06189207    -0.68482858
      6      H    -1.89351581    -1.40781445    -0.26370370
      7      H    -1.16025881    -1.10164847    -1.86941881
      8      N    -1.00331020     1.19268220    -0.61828767
      9      H    -0.82167121     2.05457754    -0.11888791
     10      H    -1.59871985     1.22644385    -1.42621315
     11      C     0.62836787    -1.27618067     1.71224216
     12      H     1.61312641    -1.64610718     1.38731405
     13      H     0.70465495    -1.12681772     2.79487564
     14      H    -0.12520896    -2.03341098     1.48182666
     15      N     0.75079139     1.14806143     1.72297690
     16      O     1.63496777     0.97913501     2.61224145
     17      O     0.30371290     2.29863567     1.40755400

Total System Charge              0.00000

 *** GO1_GOStep15 ***

 Integrated fractional orbital density (NFOD):         1.000

 Energy gradients wrt nuclear displacements
 ==========================================

     Atom      Cartesian (a.u./angstrom)
                 X         Y         Z
 ----------------------------------------
     1 C     0.014416  0.019297 -0.033936
     2 C     0.004408  0.014259  0.011719
     3 Cl   -0.022401 -0.002620  0.011071
     4 C     0.001516  0.001964  0.007744
     5 H    -0.000001 -0.001624 -0.000023
     6 H    -0.000464 -0.000825  0.001418
     7 H     0.002821 -0.000131 -0.000572
     8 N     0.016962 -0.017250  0.000797
     9 H    -0.009999 -0.005178 -0.007139
    10 H     0.002268  0.006512  0.014624
    11 C    -0.000993  0.012167 -0.002699
    12 H     0.001565  0.002454  0.000594
    13 H     0.002574  0.000009  0.003347
    14 H    -0.002021  0.002329 -0.000959
    15 N    -0.020925 -0.020801 -0.003688
    16 O     0.008017 -0.007177 -0.000650
    17 O     0.002254 -0.003386 -0.001649
 ----------------------------------------

 dE(predicted):    -0.48951E-02, dE(actual):    -0.53448E-02, Trust radius:    1.000000, all in a.u.
 Residual max backtransformation error   0.5053E+00
 
----------------------------------------------------------------------
Geometry Convergence after Step  15       (Hartree/Angstrom,Angstrom)
----------------------------------------------------------------------
current energy                               -3.31500544 Hartree
energy change                      -0.00534480     0.00017000    F
constrained gradient max            0.03392779     0.00010000    F
constrained gradient rms            0.00994215     0.00006667    F
gradient max                        0.03392779
gradient rms                        0.00994215
cart. step max                      0.10146763     0.01000000    F
cart. step rms                      0.02242877     0.00666667    F
 

--------
Geometry
--------
Formula: C4H8ClN2O2
Atoms
  Index Symbol   x (angstrom)   y (angstrom)   z (angstrom)
      1      C    -0.37545511     0.07543542    -0.26335427
      2      C     0.30555431     0.00514585     1.04156767
      3     Cl     1.61607815    -0.06784679    -1.23550795
      4      C    -0.97380534    -1.21662680    -0.78944634
      5      H    -0.29607870    -2.06203929    -0.67971903
      6      H    -1.91152397    -1.42158541    -0.25269394
      7      H    -1.18359277    -1.10366414    -1.85795189
      8      N    -1.02133020     1.18953332    -0.60254762
      9      H    -0.81668490     2.05300041    -0.11237247
     10      H    -1.49725222     1.26936866    -1.48814591
     11      C     0.64453012    -1.27666630     1.70473056
     12      H     1.63090043    -1.63515176     1.37353510
     13      H     0.72402444    -1.12963328     2.78744874
     14      H    -0.10247815    -2.04128438     1.47728515
     15      N     0.73558943     1.14911569     1.72556953
     16      O     1.63631380     0.99112016     2.59966752
     17      O     0.25791807     2.29422774     1.43023678

Total System Charge              0.00000

 *** GO1_GOStep16 ***

 Integrated fractional orbital density (NFOD):         1.000

 Energy gradients wrt nuclear displacements
 ==========================================

     Atom      Cartesian (a.u./angstrom)
                 X         Y         Z
 ----------------------------------------
     1 C     0.009425  0.023727 -0.036400
     2 C     0.007283  0.015196  0.011679
     3 Cl   -0.022051 -0.003287  0.011046
     4 C     0.000715  0.001573  0.008908
     5 H     0.000049 -0.001578 -0.000226
     6 H    -0.000349 -0.000975  0.001409
     7 H     0.003074 -0.000169 -0.000773
     8 N     0.020893 -0.024752  0.011103
     9 H    -0.010820 -0.004107 -0.008938
    10 H     0.001735  0.009160  0.009008
    11 C    -0.001137  0.012414 -0.003291
    12 H     0.001583  0.002230  0.000608
    13 H     0.002637  0.000059  0.003140
    14 H    -0.002095  0.002200 -0.000988
    15 N    -0.021066 -0.023196 -0.004518
    16 O     0.008881 -0.006689  0.000411
    17 O     0.001244 -0.001805 -0.002179
 ----------------------------------------

 dE(predicted):    -0.45965E-02, dE(actual):    -0.15790E-02, Trust radius:    1.000000, all in a.u.
 Residual max backtransformation error   0.3852E+00

 Delocalized step failed. Taking Cartesian step

 
----------------------------------------------------------------------
Geometry Convergence after Step  16       (Hartree/Angstrom,Angstrom)
----------------------------------------------------------------------
current energy                               -3.31658447 Hartree
energy change                      -0.00157903     0.00017000    F
constrained gradient max            0.03639664     0.00010000    F
constrained gradient rms            0.01085120     0.00006667    F
gradient max                        0.03639664
gradient rms                        0.01085120
cart. step max                      0.00525335     0.01000000    T
cart. step rms                      0.00148199     0.00666667    T
 

--------
Geometry
--------
Formula: C4H8ClN2O2
Atoms
  Index Symbol   x (angstrom)   y (angstrom)   z (angstrom)
      1      C    -0.37692293     0.07313808    -0.25982056
      2      C     0.30718598     0.00427532     1.04054377
      3     Cl     1.61728080    -0.06735935    -1.23718692
      4      C    -0.97376133    -1.21723544    -0.78957604
      5      H    -0.29591205    -2.06220686    -0.67955371
      6      H    -1.91150923    -1.42168842    -0.25283418
      7      H    -1.18412597    -1.10349514    -1.85772513
      8      N    -1.02658354     1.19351358    -0.60372432
      9      H    -0.81515965     2.05338444    -0.10962434
     10      H    -1.49533300     1.26815126    -1.49236176
     11      C     0.64492804    -1.27744053     1.70524851
     12      H     1.63088130    -1.63540113     1.37362929
     13      H     0.72356997    -1.12983844     2.78758795
     14      H    -0.10235370    -2.04162636     1.47733453
     15      N     0.73628517     1.15031821     1.72579033
     16      O     1.63598519     0.99172777     2.59970986
     17      O     0.25825233     2.29423209     1.43086436

Total System Charge              0.00000

 *** GO1_GOStep17 ***

 Integrated fractional orbital density (NFOD):         1.000

 Energy gradients wrt nuclear displacements
 ==========================================

     Atom      Cartesian (a.u./angstrom)
                 X         Y         Z
 ----------------------------------------
     1 C     0.015168  0.012386 -0.030119
     2 C     0.008015  0.014025  0.010202
     3 Cl   -0.021810 -0.003307  0.010833
     4 C     0.001078  0.001282  0.007941
     5 H    -0.000002 -0.001219 -0.000123
     6 H    -0.000174 -0.000554  0.001452
     7 H     0.002880 -0.000312 -0.000703
     8 N     0.012277 -0.011649  0.003814
     9 H    -0.009655 -0.004796 -0.007310
    10 H     0.002356  0.007669  0.009960
    11 C    -0.001015  0.011827 -0.002678
    12 H     0.001158  0.002574  0.000502
    13 H     0.002512  0.000034  0.002774
    14 H    -0.002108  0.002202 -0.001032
    15 N    -0.020585 -0.020897 -0.003607
    16 O     0.008186 -0.006689 -0.000190
    17 O     0.001720 -0.002577 -0.001716
 ----------------------------------------

 dE(predicted):    -0.15714E-02, dE(actual):    -0.54003E-03, Trust radius:    1.000000, all in a.u.
 
----------------------------------------------------------------------
Geometry Convergence after Step  17       (Hartree/Angstrom,Angstrom)
----------------------------------------------------------------------
current energy                               -3.31712450 Hartree
energy change                      -0.00054003     0.00017000    F
constrained gradient max            0.03016036     0.00010000    F
constrained gradient rms            0.00903006     0.00006667    F
gradient max                        0.03011654
gradient rms                        0.00902172
cart. step max                      0.18485044     0.01000000    F
cart. step rms                      0.05543129     0.00666667    F
 

--------
Geometry
--------
Formula: C4H8ClN2O2
Atoms
  Index Symbol   x (angstrom)   y (angstrom)   z (angstrom)
      1      C    -0.42911716     0.00949195    -0.22840915
      2      C     0.29770670    -0.00922654     1.04976784
      3     Cl     1.60389393    -0.06925114    -1.14804585
      4      C    -1.03659614    -1.23500798    -0.84763066
      5      H    -0.37317200    -2.09597432    -0.78225845
      6      H    -1.98504704    -1.45807149    -0.33784819
      7      H    -1.23093156    -1.05027883    -1.90878002
      8      N    -1.04154527     1.15998814    -0.54267395
      9      H    -0.78310393     1.98844524    -0.01642809
     10      H    -1.31048256     1.33311825    -1.49970235
     11      C     0.68469539    -1.26407076     1.74086004
     12      H     1.67070030    -1.60783430     1.39508477
     13      H     0.78492683    -1.08455782     2.81660686
     14      H    -0.04852980    -2.05254068     1.55363162
     15      N     0.71872212     1.16571332     1.69118138
     16      O     1.64872644     1.05352820     2.53984149
     17      O     0.20186113     2.28897784     1.38310434

Total System Charge              0.00000

 *** GO1_GOStep18 ***

 Integrated fractional orbital density (NFOD):         1.000

 Energy gradients wrt nuclear displacements
 ==========================================

     Atom      Cartesian (a.u./angstrom)
                 X         Y         Z
 ----------------------------------------
     1 C     0.012839 -0.013391 -0.026591
     2 C     0.013364  0.034435  0.005964
     3 Cl   -0.027974 -0.000505  0.018039
     4 C    -0.007820  0.004775 -0.005988
     5 H    -0.001169  0.001029 -0.002234
     6 H    -0.000759 -0.001176  0.001387
     7 H     0.002182 -0.001824 -0.001508
     8 N     0.021546 -0.010986  0.025217
     9 H    -0.010590 -0.006192 -0.011686
    10 H     0.009885  0.010851  0.010832
    11 C    -0.001761  0.011630 -0.002785
    12 H     0.001678  0.002090  0.000173
    13 H     0.003009  0.000895  0.002503
    14 H    -0.000326  0.002722  0.001353
    15 N    -0.019538 -0.016450 -0.004718
    16 O     0.008988 -0.006128  0.000920
    17 O    -0.003555 -0.011775 -0.010877
 ----------------------------------------

 dE(predicted):    -0.39755E-02, dE(actual):     0.19914E-02, Trust radius:    0.102769, all in a.u.
 
----------------------------------------------------------------------
Geometry Convergence after Step  18       (Hartree/Angstrom,Angstrom)
----------------------------------------------------------------------
current energy                               -3.31513306 Hartree
energy change                       0.00199144     0.00017000    F
constrained gradient max            0.03443951     0.00010000    F
constrained gradient rms            0.01153305     0.00006667    F
gradient max                        0.03443951
gradient rms                        0.01153305
cart. step max                      0.06839213     0.01000000    F
cart. step rms                      0.03039525     0.00666667    F
 

--------
Geometry
--------
Formula: C4H8ClN2O2
Atoms
  Index Symbol   x (angstrom)   y (angstrom)   z (angstrom)
      1      C    -0.42792718     0.04218381    -0.23088336
      2      C     0.29685900     0.00034482     1.04717708
      3     Cl     1.61175291    -0.03289158    -1.18809148
      4      C    -1.01740656    -1.23120269    -0.80357324
      5      H    -0.33858649    -2.07858230    -0.71386632
      6      H    -1.95819116    -1.45255727    -0.27976697
      7      H    -1.22451674    -1.08402535    -1.86763158
      8      N    -1.05961752     1.17977411    -0.58789850
      9      H    -0.80307418     2.02466647    -0.07660151
     10      H    -1.32790469     1.29861427    -1.55963086
     11      C     0.67032594    -1.27751565     1.71494070
     12      H     1.65327909    -1.62647989     1.36740040
     13      H     0.76503279    -1.12320433     2.79482862
     14      H    -0.06984316    -2.05505390     1.50837364
     15      N     0.72894662     1.16348705     1.71906895
     16      O     1.65108509     1.02505567     2.56989940
     17      O     0.22249362     2.29983584     1.44455667

Total System Charge              0.00000

 *** GO1_GOStep19 ***

 Integrated fractional orbital density (NFOD):         1.000

 Energy gradients wrt nuclear displacements
 ==========================================

     Atom      Cartesian (a.u./angstrom)
                 X         Y         Z
 ----------------------------------------
     1 C     0.013299 -0.008379 -0.026163
     2 C     0.012900  0.021954  0.007219
     3 Cl   -0.023588 -0.000731  0.013881
     4 C    -0.005976  0.002761  0.001207
     5 H    -0.000109 -0.000513 -0.000816
     6 H    -0.000262 -0.000935  0.000900
     7 H     0.002554 -0.000642 -0.000348
     8 N     0.005995 -0.006844  0.008142
     9 H    -0.006666 -0.001835 -0.003184
    10 H     0.005152  0.006592 -0.000947
    11 C     0.000313  0.007428 -0.001679
    12 H     0.000948  0.001316  0.000804
    13 H     0.002509 -0.000125  0.002237
    14 H    -0.001056  0.001459  0.000227
    15 N    -0.017194 -0.017395 -0.004359
    16 O     0.007572 -0.002861  0.001255
    17 O     0.003607 -0.001251  0.001623
 ----------------------------------------

 dE(predicted):    -0.37922E-02, dE(actual):    -0.32069E-02, Trust radius:    0.205538, all in a.u.
 
----------------------------------------------------------------------
Geometry Convergence after Step  19       (Hartree/Angstrom,Angstrom)
----------------------------------------------------------------------
current energy                               -3.31833998 Hartree
energy change                      -0.00320692     0.00017000    F
constrained gradient max            0.02616509     0.00010000    F
constrained gradient rms            0.00827420     0.00006667    F
gradient max                        0.02616509
gradient rms                        0.00827420
cart. step max                      0.10528786     0.01000000    F
cart. step rms                      0.02756670     0.00666667    F
 

--------
Geometry
--------
Formula: C4H8ClN2O2
Atoms
  Index Symbol   x (angstrom)   y (angstrom)   z (angstrom)
      1      C    -0.43212021     0.07151164    -0.22484744
      2      C     0.29630597    -0.01000867     1.03870435
      3     Cl     1.60160687     0.01092637    -1.29337934
      4      C    -0.98961105    -1.22430108    -0.77101894
      5      H    -0.28174038    -2.04862125    -0.68778174
      6      H    -1.90822725    -1.46772157    -0.21859109
      7      H    -1.23760723    -1.09756553    -1.82859417
      8      N    -1.08460230     1.20071244    -0.58577317
      9      H    -0.78586263     2.03867358    -0.08152470
     10      H    -1.30118012     1.29956634    -1.57282325
     11      C     0.65101521    -1.29549489     1.71104670
     12      H     1.63729547    -1.65057300     1.38268957
     13      H     0.71774644    -1.14618307     2.79394634
     14      H    -0.09117263    -2.06657445     1.48756608
     15      N     0.72281677     1.15531515     1.71615658
     16      O     1.63295953     1.01627222     2.57528290
     17      O     0.22508492     2.28651486     1.41724296

Total System Charge              0.00000

 *** GO1_GOStep20 ***

 Integrated fractional orbital density (NFOD):         1.000

 Energy gradients wrt nuclear displacements
 ==========================================

     Atom      Cartesian (a.u./angstrom)
                 X         Y         Z
 ----------------------------------------
     1 C     0.014195  0.010753 -0.023741
     2 C     0.011565  0.008537  0.005821
     3 Cl   -0.019584 -0.001390  0.006447
     4 C     0.000559  0.000945  0.009264
     5 H     0.000738 -0.001750  0.000703
     6 H     0.000618 -0.000087  0.000525
     7 H     0.002104  0.000302  0.000423
     8 N    -0.005422  0.001206  0.002047
     9 H    -0.001599 -0.003341  0.001375
    10 H     0.007367  0.002355 -0.000773
    11 C     0.003429  0.003217  0.001586
    12 H    -0.000479  0.001180  0.001108
    13 H     0.000923 -0.001203  0.002508
    14 H    -0.002059  0.000897 -0.000222
    15 N    -0.019676 -0.011362 -0.001391
    16 O     0.006032 -0.005017 -0.001826
    17 O     0.001290 -0.005243 -0.003854
 ----------------------------------------

 dE(predicted):    -0.15937E-02, dE(actual):    -0.10471E-02, Trust radius:    0.205538, all in a.u.
 
----------------------------------------------------------------------
Geometry Convergence after Step  20       (Hartree/Angstrom,Angstrom)
----------------------------------------------------------------------
current energy                               -3.31938706 Hartree
energy change                      -0.00104708     0.00017000    F
constrained gradient max            0.02374395     0.00010000    F
constrained gradient rms            0.00689422     0.00006667    F
gradient max                        0.02374395
gradient rms                        0.00689422
cart. step max                      0.09875787     0.01000000    F
cart. step rms                      0.02226509     0.00666667    F
 

--------
Geometry
--------
Formula: C4H8ClN2O2
Atoms
  Index Symbol   x (angstrom)   y (angstrom)   z (angstrom)
      1      C    -0.41788597     0.08242613    -0.23135696
      2      C     0.28987888     0.00210004     1.03881870
      3     Cl     1.62480161    -0.00350903    -1.28028367
      4      C    -0.96594055    -1.22462611    -0.76168969
      5      H    -0.25460681    -2.04382024    -0.66207850
      6      H    -1.88653938    -1.46537469    -0.21033000
      7      H    -1.20909239    -1.11626651    -1.82283811
      8      N    -1.07735507     1.20678782    -0.59919997
      9      H    -0.80193856     2.05574230    -0.10356096
     10      H    -1.39993799     1.27291675    -1.55162406
     11      C     0.62905432    -1.29040061     1.69579846
     12      H     1.61277262    -1.64507619     1.35823455
     13      H     0.70079524    -1.15142604     2.77963331
     14      H    -0.12033708    -2.05118332     1.46149143
     15      N     0.74130738     1.15581781     1.72555738
     16      O     1.63988780     0.99049098     2.59119873
     17      O     0.26784334     2.29784996     1.43053100

Total System Charge              0.00000

 *** GO1_GOStep21 ***

 Integrated fractional orbital density (NFOD):         1.000

 Energy gradients wrt nuclear displacements
 ==========================================

     Atom      Cartesian (a.u./angstrom)
                 X         Y         Z
 ----------------------------------------
     1 C     0.020388  0.005014 -0.020691
     2 C     0.004253  0.005835  0.003637
     3 Cl   -0.018824 -0.002417  0.006662
     4 C     0.004600 -0.000386  0.012204
     5 H     0.000971 -0.002529  0.001641
     6 H     0.000285  0.000031  0.000875
     7 H     0.001868  0.000237  0.000228
     8 N    -0.009732  0.009001 -0.013666
     9 H    -0.002272 -0.003841  0.002118
    10 H     0.005814  0.000197  0.008876
    11 C     0.001565  0.005155 -0.001413
    12 H    -0.000213  0.002523  0.000103
    13 H     0.000986 -0.000287  0.002389
    14 H    -0.003021  0.000940 -0.002065
    15 N    -0.015379 -0.010311  0.000643
    16 O     0.005535 -0.005490 -0.001606
    17 O     0.003174 -0.003673  0.000064
 ----------------------------------------

 dE(predicted):    -0.60470E-03, dE(actual):    -0.20069E-03, Trust radius:    0.205538, all in a.u.
 
----------------------------------------------------------------------
Geometry Convergence after Step  21       (Hartree/Angstrom,Angstrom)
----------------------------------------------------------------------
current energy                               -3.31958774 Hartree
energy change                      -0.00020069     0.00017000    F
constrained gradient max            0.02069087     0.00010000    F
constrained gradient rms            0.00701771     0.00006667    F
gradient max                        0.02069087
gradient rms                        0.00701771
cart. step max                      0.07251341     0.01000000    F
cart. step rms                      0.02413237     0.00666667    F
 

--------
Geometry
--------
Formula: C4H8ClN2O2
Atoms
  Index Symbol   x (angstrom)   y (angstrom)   z (angstrom)
      1      C    -0.44169087     0.06341418    -0.21045521
      2      C     0.28315263     0.01030725     1.04237867
      3     Cl     1.64337576    -0.00794410    -1.26909411
      4      C    -0.99759128    -1.22665279    -0.77639459
      5      H    -0.29245503    -2.05246582    -0.70415324
      6      H    -1.91819452    -1.47846369    -0.22760886
      7      H    -1.25270905    -1.08877864    -1.83149767
      8      N    -1.09115788     1.18640068    -0.60447804
      9      H    -0.78186979     2.03614544    -0.12953906
     10      H    -1.34082953     1.24048751    -1.57823783
     11      C     0.64328177    -1.27231517     1.70046820
     12      H     1.63898121    -1.60231531     1.37149939
     13      H     0.70028419    -1.12834128     2.78435278
     14      H    -0.08581210    -2.05019759     1.46228620
     15      N     0.75068146     1.15779170     1.74029504
     16      O     1.66609773     0.98485947     2.58543554
     17      O     0.24916271     2.30051725     1.50304441

Total System Charge              0.00000

 *** GO1_GOStep22 ***

 Integrated fractional orbital density (NFOD):         1.000

 Energy gradients wrt nuclear displacements
 ==========================================

     Atom      Cartesian (a.u./angstrom)
                 X         Y         Z
 ----------------------------------------
     1 C     0.024010 -0.004037 -0.012423
     2 C     0.001107  0.014561  0.000504
     3 Cl   -0.017723 -0.001710  0.006376
     4 C     0.001266  0.002102  0.002784
     5 H    -0.000426 -0.000619  0.000631
     6 H    -0.001124 -0.000289  0.000680
     7 H     0.000152 -0.000976 -0.000243
     8 N    -0.017807  0.004011 -0.020260
     9 H     0.001094 -0.006534  0.002316
    10 H     0.008081 -0.002545  0.011226
    11 C     0.000318  0.009895 -0.001447
    12 H     0.000549  0.002855 -0.000918
    13 H     0.000650  0.001196  0.001757
    14 H    -0.002092  0.001740 -0.000778
    15 N    -0.010005 -0.017260 -0.002273
    16 O     0.005846 -0.002169  0.002607
    17 O     0.006104 -0.000220  0.009460
 ----------------------------------------

 dE(predicted):    -0.10889E-02, dE(actual):    -0.53246E-03, Trust radius:    0.205538, all in a.u.
 
----------------------------------------------------------------------
Geometry Convergence after Step  22       (Hartree/Angstrom,Angstrom)
----------------------------------------------------------------------
current energy                               -3.32012020 Hartree
energy change                      -0.00053246     0.00017000    F
constrained gradient max            0.02401797     0.00010000    F
constrained gradient rms            0.00770084     0.00006667    F
gradient max                        0.02401797
gradient rms                        0.00770084
cart. step max                      0.06505063     0.01000000    F
cart. step rms                      0.01909885     0.00666667    F
 

--------
Geometry
--------
Formula: C4H8ClN2O2
Atoms
  Index Symbol   x (angstrom)   y (angstrom)   z (angstrom)
      1      C    -0.43959828     0.05869513    -0.20628936
      2      C     0.28749821    -0.00338077     1.04436685
      3     Cl     1.64962603    -0.00185391    -1.26862939
      4      C    -0.99205800    -1.22147554    -0.79664523
      5      H    -0.28486383    -2.04664752    -0.73923264
      6      H    -1.91368210    -1.48747918    -0.25593263
      7      H    -1.24251504    -1.06077575    -1.84947202
      8      N    -1.09690036     1.18370877    -0.58519401
      9      H    -0.81409446     2.03423544    -0.09694862
     10      H    -1.37304081     1.24461569    -1.55505929
     11      C     0.64051656    -1.27680720     1.72441147
     12      H     1.63573444    -1.61964887     1.40593816
     13      H     0.69700607    -1.11861181     2.80654518
     14      H    -0.09081058    -2.05554094     1.49767518
     15      N     0.76008403     1.15509281     1.71853493
     16      O     1.66395761     0.98930867     2.57623928
     17      O     0.28584789     2.29901406     1.43799378

Total System Charge              0.00000

 *** GO1_GOStep23 ***

 Integrated fractional orbital density (NFOD):         1.000

 Energy gradients wrt nuclear displacements
 ==========================================

     Atom      Cartesian (a.u./angstrom)
                 X         Y         Z
 ----------------------------------------
     1 C     0.027673 -0.005807 -0.010000
     2 C     0.002341  0.010426  0.001880
     3 Cl   -0.017806 -0.001600  0.005787
     4 C     0.000386  0.003005  0.000860
     5 H    -0.000866 -0.000153  0.000011
     6 H    -0.001285 -0.000638  0.000877
     7 H     0.000387 -0.000219 -0.000197
     8 N    -0.014389  0.007906 -0.012951
     9 H    -0.002155 -0.005595  0.001878
    10 H     0.006234 -0.001310  0.005139
    11 C     0.000447  0.010484  0.000944
    12 H     0.000779  0.002105 -0.000337
    13 H     0.001201  0.000288  0.002179
    14 H    -0.001016  0.002302  0.000440
    15 N    -0.011948 -0.015362 -0.001866
    16 O     0.004366 -0.003510  0.000313
    17 O     0.005652 -0.002324  0.005045
 ----------------------------------------

 dE(predicted):    -0.62838E-03, dE(actual):    -0.90978E-03, Trust radius:    0.205538, all in a.u.
 
----------------------------------------------------------------------
Geometry Convergence after Step  23       (Hartree/Angstrom,Angstrom)
----------------------------------------------------------------------
current energy                               -3.32102998 Hartree
energy change                      -0.00090978     0.00017000    F
constrained gradient max            0.02767438     0.00010000    F
constrained gradient rms            0.00704780     0.00006667    F
gradient max                        0.02767438
gradient rms                        0.00704780
cart. step max                      0.06973173     0.01000000    F
cart. step rms                      0.01971645     0.00666667    F
 

--------
Geometry
--------
Formula: C4H8ClN2O2
Atoms
  Index Symbol   x (angstrom)   y (angstrom)   z (angstrom)
      1      C    -0.47372265     0.06143493    -0.18150239
      2      C     0.26775661    -0.01861099     1.04877780
      3     Cl     1.69049859    -0.01549843    -1.23148835
      4      C    -0.99453441    -1.21927357    -0.79407387
      5      H    -0.27065171    -2.03067226    -0.74083319
      6      H    -1.91575412    -1.51151574    -0.26636858
      7      H    -1.23680806    -1.04512893    -1.84627546
      8      N    -1.11107735     1.19645506    -0.55534108
      9      H    -0.80471936     2.04735018    -0.08327961
     10      H    -1.37087302     1.27260253    -1.53349907
     11      C     0.64025023    -1.28991158     1.72769153
     12      H     1.64212807    -1.61965020     1.41708937
     13      H     0.68886620    -1.14070530     2.81214967
     14      H    -0.07752089    -2.07906737     1.49495047
     15      N     0.74801497     1.16008173     1.68876837
     16      O     1.66055708     1.00615684     2.53327396
     17      O     0.29029722     2.29840217     1.36826205

Total System Charge              0.00000

 *** GO1_GOStep24 ***

 Integrated fractional orbital density (NFOD):         1.000

 Energy gradients wrt nuclear displacements
 ==========================================

     Atom      Cartesian (a.u./angstrom)
                 X         Y         Z
 ----------------------------------------
     1 C     0.027365  0.000838 -0.010675
     2 C     0.000600  0.002244  0.004097
     3 Cl   -0.015970 -0.002217  0.005368
     4 C     0.002883 -0.000214  0.003624
     5 H    -0.000374 -0.001103 -0.000038
     6 H    -0.000860 -0.000651  0.001033
     7 H     0.001164  0.001077  0.000435
     8 N    -0.010508  0.010701  0.005684
     9 H    -0.003414 -0.003956 -0.003123
    10 H     0.006299  0.002824 -0.000258
    11 C     0.000751  0.008225 -0.000186
    12 H     0.001168  0.000595  0.000694
    13 H     0.002052 -0.001248  0.002456
    14 H    -0.000417  0.002002  0.000334
    15 N    -0.014936 -0.007256 -0.000741
    16 O     0.000745 -0.005539 -0.006310
    17 O     0.003450 -0.006324 -0.002391
 ----------------------------------------
 Rebuilding optimization coordinates

 dE(predicted):    -0.14607E-02, dE(actual):    -0.16965E-02, Trust radius:    0.411077, all in a.u.
 
----------------------------------------------------------------------
Geometry Convergence after Step  24       (Hartree/Angstrom,Angstrom)
----------------------------------------------------------------------
current energy                               -3.32272651 Hartree
energy change                      -0.00169653     0.00017000    F
constrained gradient max            0.02736780     0.00010000    F
constrained gradient rms            0.00631788     0.00006667    F
gradient max                        0.02736780
gradient rms                        0.00631788
cart. step max                      0.06352394     0.01000000    F
cart. step rms                      0.01982140     0.00666667    F
 

--------
Geometry
--------
Formula: C4H8ClN2O2
Atoms
  Index Symbol   x (angstrom)   y (angstrom)   z (angstrom)
      1      C    -0.49963643     0.05378575    -0.15503048
      2      C     0.27013580    -0.02487265     1.04261593
      3     Cl     1.75402254    -0.00482453    -1.22045082
      4      C    -0.99798020    -1.21696650    -0.80041598
      5      H    -0.26535855    -2.02056080    -0.75215239
      6      H    -1.92445141    -1.52688459    -0.29204590
      7      H    -1.22964971    -1.02282476    -1.85130133
      8      N    -1.11726215     1.19256611    -0.53303282
      9      H    -0.81176767     2.04523417    -0.06316487
     10      H    -1.42081799     1.25577867    -1.50187321
     11      C     0.63344438    -1.29316126     1.73169859
     12      H     1.64236066    -1.62388912     1.44520343
     13      H     0.65909329    -1.14344585     2.81698727
     14      H    -0.07613882    -2.08567005     1.48704729
     15      N     0.76518965     1.16752926     1.66710110
     16      O     1.66223592     1.01790417     2.52475514
     17      O     0.32928807     2.30275107     1.31236068

Total System Charge              0.00000

 *** GO1_GOStep25 ***

 Integrated fractional orbital density (NFOD):         1.000

 Energy gradients wrt nuclear displacements
 ==========================================

     Atom      Cartesian (a.u./angstrom)
                 X         Y         Z
 ----------------------------------------
     1 C     0.027584 -0.003449 -0.002435
     2 C    -0.005059 -0.000886 -0.000236
     3 Cl   -0.011344 -0.000830  0.002208
     4 C     0.003193 -0.000632  0.001921
     5 H    -0.000248 -0.000635  0.000205
     6 H    -0.001317  0.000288  0.000929
     7 H     0.000606  0.001334  0.000796
     8 N    -0.005594  0.012814  0.012057
     9 H    -0.004336 -0.003760 -0.002520
    10 H     0.004394  0.002036 -0.004441
    11 C    -0.001917  0.008110 -0.000949
    12 H     0.001374 -0.000411  0.000958
    13 H     0.002270 -0.001624  0.002054
    14 H     0.000174  0.001712  0.000262
    15 N    -0.012190 -0.000551  0.000613
    16 O     0.000196 -0.005084 -0.006348
    17 O     0.002215 -0.008433 -0.005073
 ----------------------------------------
[...]
                                    4.11%     1 S              -6.532  1.00     7 H
                                   -2.76%     2 P:x             4.589  0.00     4 C
                                    2.62%     2 S               2.394  0.00    11 H
                                    2.49%     1 P:y            -5.239  0.67     2 C
                                   -2.24%     2 P:y             4.589  0.00     3 C
                                   -2.16%     2 P:y             4.589  0.00     4 C
                                   -2.13%     2 P:z             4.589  0.00     3 C
                                    2.04%     1 P:y            -9.020  1.33    17 O
                                    1.88%     2 S             -13.620  2.00     2 C
                                    1.80%     1 P:z            -9.020  1.33    16 O
                                    1.76%     2 P:y             4.589  0.00     2 C
                                    1.71%     2 S             -13.620  2.00     3 C
                                   -1.64%     2 P:x             7.649  0.00    14 N
                                    1.58%     1 P:y            -7.062  1.00    14 N
                                   -1.34%     3 S              21.524  0.00    17 O
                                   -1.31%     3 S              10.158  0.00     3 C
                                   -1.27%     3 S              14.073  0.00    15 N
                                   -1.21%     2 P:z             7.649  0.00    14 N
                                   -1.20%     2 P:z             4.589  0.00     4 C
                                    1.06%     2 S             -23.838  2.00    17 O
       1.746  0.00    49 A         30.45%     1 S              -6.532  1.00     6 H
                                   13.53%     1 P:y            -5.239  0.67     3 C
                                   12.11%     2 P:y             4.589  0.00     4 C
                                    8.40%     1 P:z            -5.239  0.67     4 C
                                    8.29%     2 S               2.394  0.00     6 H
                                   -8.11%     2 P:z             4.589  0.00     3 C
                                    7.51%     2 P:y             4.589  0.00     3 C
                                    6.10%     1 P:y            -5.239  0.67     4 C
                                   -5.88%     3 S              10.158  0.00     1 C
                                   -5.10%     3 S              10.158  0.00     2 C
                                    4.70%     1 P:y            -5.239  0.67     2 C
                                    4.61%     1 P:z            -5.239  0.67     3 C
                                    4.30%     2 S               2.394  0.00    13 H
                                   -4.15%     2 P:x             4.589  0.00     3 C
                                    3.81%     1 S              -6.532  1.00    13 H
                                    3.77%     1 S              -6.532  1.00    12 H
                                    3.67%     1 P:x            -5.239  0.67     1 C
                                    2.18%     1 S              -6.532  1.00     7 H
                                    2.12%     2 S               2.394  0.00     7 H
                                    2.10%     1 P:y            -5.239  0.67     1 C
                                    2.00%     1 P:x            -5.239  0.67     2 C
                                   -1.72%     2 P:y             4.589  0.00     1 C
                                   -1.72%     2 S               2.394  0.00    12 H
                                    1.40%     1 S              -6.532  1.00    10 H
                                    1.18%     2 S               2.394  0.00     8 H
                                    1.09%     2 P:y             4.589  0.00     2 C
                                   -1.09%     2 S               2.394  0.00     9 H
                                    1.02%     2 S             -13.620  2.00     4 C
       1.867  0.00    50 A         45.38%     1 S              -6.532  1.00    11 H
                                  -35.23%     2 P:x             4.589  0.00     4 C
                                   19.10%     1 S              -6.532  1.00    12 H
                                   18.06%     2 S               2.394  0.00    11 H
                                   13.49%     1 P:x            -5.239  0.67     4 C
                                   11.49%     1 S              -6.532  1.00     7 H
                                    8.45%     1 P:y            -5.239  0.67     3 C
                                    5.25%     2 S               2.394  0.00    12 H
                                    3.77%     1 S              -6.532  1.00    13 H
                                   -3.57%     2 S               2.394  0.00    13 H
                                   -2.84%     2 P:z             4.589  0.00     3 C
                                    2.60%     1 S              -6.532  1.00     8 H
                                    2.18%     3 S              40.869  0.00    12 H
                                    2.11%     1 P:z            -5.239  0.67     2 C
                                   -2.09%     3 S              10.158  0.00     1 C
                                    1.91%     2 P:x             4.589  0.00     2 C
                                   -1.59%     2 P:y             4.589  0.00     1 C
                                    1.44%     1 P:x            -5.239  0.67     2 C
                                   -1.44%     2 S               2.394  0.00     7 H
                                    1.39%     2 S             -13.620  2.00     1 C
                                    1.24%     3 S              40.869  0.00    11 H
                                   -1.06%     2 S               2.394  0.00     8 H
                                    1.04%     3 S              40.869  0.00     7 H

 Energy gradients wrt nuclear displacements
 ==========================================

     Atom      Cartesian (a.u./angstrom)
                 X         Y         Z
 ----------------------------------------
     1 C     0.000050 -0.000013 -0.000031
     2 C    -0.000037 -0.000056 -0.000012
     3 Cl    0.000020 -0.000154  0.000051
     4 C    -0.000043 -0.000029 -0.000013
     5 H    -0.000038 -0.000038  0.000058
     6 H    -0.000048  0.000063  0.000041
     7 H     0.000009 -0.000012 -0.000006
     8 N     0.000033  0.000047 -0.000017
     9 H     0.000122 -0.000002 -0.000106
    10 H     0.000096 -0.000034 -0.000087
    11 C    -0.000090  0.000022  0.000010
    12 H    -0.000073 -0.000015  0.000086
    13 H    -0.000081  0.000093  0.000061
    14 H    -0.000076  0.000003  0.000092
    15 N     0.000065  0.000063 -0.000002
    16 O    -0.000002  0.000051 -0.000034
    17 O     0.000092  0.000010 -0.000089
 ----------------------------------------



 =======================================================================
 Electrostatic potential at the Nuclei due to electrons and other nuclei
 =======================================================================
  
         Atom                  Potential
         ----                  ---------
     1)   C                  14.66603521
     2)   C                  14.68480497
     3)   Cl                 64.92378009
     4)   C                  14.73865140
     5)   H                   1.06245493
     6)   H                   1.05793930
     7)   H                   1.06174832
     8)   N                  18.33487912
     9)   H                   0.97218866
    10)   H                   0.96021439
    11)   C                  14.76313757
    12)   H                   1.09474090
    13)   H                   1.08481708
    14)   H                   1.08758890
    15)   N                  18.19163924
    16)   O                  22.37262341
    17)   O                  22.37167104
 Mulliken charges used for AMS results%charges...


    =====================
     CALCULATION RESULTS
    =====================

Energy (hartree)            -3.33131482

Gradients (hartree/bohr)
  Index   Atom            d/dx            d/dy            d/dz
      1      C    0.0000265822   -0.0000067461   -0.0000162663
      2      C   -0.0000196517   -0.0000295392   -0.0000062940
      3     Cl    0.0000105226   -0.0000813756    0.0000268882
      4      C   -0.0000224917   -0.0000153304   -0.0000071373
      5      H   -0.0000199244   -0.0000200212    0.0000306497
      6      H   -0.0000253726    0.0000333230    0.0000214765
      7      H    0.0000045021   -0.0000065219   -0.0000032510
      8      N    0.0000176524    0.0000249392   -0.0000091577
      9      H    0.0000643302   -0.0000010915   -0.0000559127
     10      H    0.0000510413   -0.0000180502   -0.0000461363
     11      C   -0.0000478166    0.0000116826    0.0000051038
     12      H   -0.0000384989   -0.0000077868    0.0000453024
     13      H   -0.0000430002    0.0000491398    0.0000324119
     14      H   -0.0000403259    0.0000014997    0.0000486257
     15      N    0.0000344197    0.0000335841   -0.0000010354
     16      O   -0.0000008491    0.0000269732   -0.0000179441
     17      O    0.0000488806    0.0000053212   -0.0000473232


--------------
Atomic charges
--------------
  Index   Atom    Charge
      1      C    0.2779
      2      C    0.0093
      3     Cl   -0.3802
      4      C    0.6409
      5      H   -0.1494
      6      H   -0.1624
      7      H   -0.2339
      8      N    0.2188
      9      H    0.0063
     10      H   -0.0826
     11      C    0.6912
     12      H   -0.1547
     13      H   -0.2007
     14      H   -0.2090
     15      N    0.5770
     16      O   -0.3906
     17      O   -0.4579


Dipole moment vector    (Debye):    -7.03042664   -2.37101634   -1.61985915
              magnitude (Debye):     7.59424525


-----------------------
Molecular orbitals info
-----------------------
n orbitals:              330
n spin:                    1

Note: only printing virtual orbitals with
      energy smaller than HOMO + 100. eV

Note: fractional orbital occupations. HOMO and LUMO labels are not well defined!

HOMO (eV):              -6.1655
LUMO (eV):              -5.2379
HOMO-LUMO gap (eV):      0.9275

   Index   Energy (eV)    Occupation
     214       93.5986         0.000       
     213       93.0279         0.000       
     212       92.9067         0.000       
     211       92.6458         0.000       
     210       91.2098         0.000       
     209       90.5538         0.000       
     208       89.9726         0.000       
     207       88.6690         0.000       
     206       88.4760         0.000       
     205       87.1731         0.000       
     204       86.3751         0.000       
     203       85.9009         0.000       
     202       84.9199         0.000       
     201       82.1174         0.000       
     200       82.0015         0.000       
     199       81.0892         0.000       
     198       80.3165         0.000       
     197       80.1937         0.000       
     196       78.5477         0.000       
     195       78.3517         0.000       
     194       77.9373         0.000       
     193       77.0932         0.000       
     192       76.8283         0.000       
     191       76.5593         0.000       
     190       75.6564         0.000       
     189       75.3693         0.000       
     188       74.3391         0.000       
     187       73.6804         0.000       
     186       73.0997         0.000       
     185       72.9782         0.000       
     184       71.6661         0.000       
     183       69.9497         0.000       
     182       69.5273         0.000       
     181       69.2521         0.000       
     180       68.7055         0.000       
     179       66.4489         0.000       
     178       65.7850         0.000       
     177       64.7943         0.000       
     176       64.4601         0.000       
     175       63.8860         0.000       
     174       63.3379         0.000       
     173       62.5117         0.000       
     172       61.5192         0.000       
     171       61.3106         0.000       
     170       59.9829         0.000       
     169       59.5647         0.000       
     168       58.2963         0.000       
     167       57.6010         0.000       
     166       57.1624         0.000       
     165       56.4563         0.000       
     164       56.1535         0.000       
     163       55.0403         0.000       
     162       54.9552         0.000       
     161       54.3780         0.000       
     160       53.8392         0.000       
     159       53.1002         0.000       
     158       52.8832         0.000       
     157       51.3831         0.000       
     156       50.7592         0.000       
     155       50.6073         0.000       
     154       49.6213         0.000       
     153       49.0804         0.000       
     152       48.2439         0.000       
     151       47.7022         0.000       
     150       47.0010         0.000       
     149       46.7587         0.000       
     148       46.1179         0.000       
     147       45.0808         0.000       
     146       44.4411         0.000       
     145       43.5662         0.000       
     144       42.5429         0.000       
     143       42.0895         0.000       
     142       41.1787         0.000       
     141       41.0649         0.000       
     140       40.0549         0.000       
     139       39.5952         0.000       
     138       38.6164         0.000       
     137       38.2271         0.000       
     136       37.8157         0.000       
     135       37.5712         0.000       
     134       37.3026         0.000       
     133       36.7765         0.000       
     132       36.2194         0.000       
     131       35.7996         0.000       
     130       35.5200         0.000       
     129       34.9570         0.000       
     128       34.7507         0.000       
     127       34.1907         0.000       
     126       33.9927         0.000       
     125       33.8300         0.000       
     124       33.5797         0.000       
     123       33.0968         0.000       
     122       32.8029         0.000       
     121       31.8921         0.000       
     120       31.5712         0.000       
     119       31.1866         0.000       
     118       31.1349         0.000       
     117       30.8937         0.000       
     116       30.4669         0.000       
     115       29.7954         0.000       
     114       28.5966         0.000       
     113       28.4287         0.000       
     112       27.7906         0.000       
     111       27.5363         0.000       
     110       27.4505         0.000       
     109       26.6904         0.000       
     108       25.4346         0.000       
     107       24.9320         0.000       
     106       24.1114         0.000       
     105       23.8100         0.000       
     104       22.8872         0.000       
     103       22.5855         0.000       
     102       22.3309         0.000       
     101       21.9853         0.000       
     100       20.8535         0.000       
      99       20.5287         0.000       
      98       20.0163         0.000       
      97       19.1135         0.000       
      96       18.9127         0.000       
      95       18.3532         0.000       
      94       16.7459         0.000       
      93       16.5422         0.000       
      92       15.7749         0.000       
      91       15.3780         0.000       
      90       14.0561         0.000       
      89       13.9745         0.000       
      88       13.6658         0.000       
      87       13.2843         0.000       
      86       13.2577         0.000       
      85       12.8263         0.000       
      84       12.7515         0.000       
      83       12.3469         0.000       
      82       11.9554         0.000       
      81       11.6830         0.000       
      80       11.4475         0.000       
      79       10.8371         0.000       
      78       10.5166         0.000       
      77       10.4392         0.000       
      76       10.1174         0.000       
      75        9.8382         0.000       
      74        9.6735         0.000       
      73        9.5194         0.000       
      72        9.3911         0.000       
      71        9.0353         0.000       
      70        8.6902         0.000       
      69        8.4287         0.000       
      68        7.9720         0.000       
      67        7.8149         0.000       
      66        7.4033         0.000       
      65        7.1691         0.000       
      64        6.7588         0.000       
      63        6.0728         0.000       
      62        6.0292         0.000       
      61        5.6439         0.000       
      60        5.2192         0.000       
      59        5.1005         0.000       
      58        4.9703         0.000       
      57        4.6035         0.000       
      56        4.2048         0.000       
      55        3.9415         0.000       
      54        3.2349         0.000       
      53        3.0263         0.000       
      52        2.8809         0.000       
      51        2.4308         0.000       
      50        1.8672         0.000       
      49        1.7455         0.000       
      48        0.9155         0.000       
      47        0.8519         0.000       
      46        0.7207         0.000       
      45        0.3007         0.000       
      44       -0.3747         0.000       
      43       -1.0844         0.000       
      42       -1.1325         0.000       
      41       -3.3353         0.000       
      40       -5.2379         1.000 < LUMO
      39       -6.1655         2.000 < HOMO
      38       -6.2325         2.000       
      37       -6.8127         2.000       
      36       -7.3228         2.000       
      35       -7.4675         2.000       
      34       -7.5959         2.000       
      33       -9.6220         2.000       
      32      -10.1033         2.000       
      31      -10.5540         2.000       
      30      -10.7726         2.000       
      29      -11.0045         2.000       
      28      -11.3190         2.000       
      27      -11.8132         2.000       
      26      -12.6168         2.000       
      25      -13.0539         2.000       
      24      -13.6529         2.000       
      23      -14.3437         2.000       
      22      -15.1661         2.000       
      21      -16.9442         2.000       
      20      -17.9531         2.000       
      19      -18.2299         2.000       
      18      -19.5477         2.000       
      17      -21.3998         2.000       
      16      -24.8273         2.000       
      15      -26.0012         2.000       
      14      -30.3067         2.000       
      13     -188.6150         2.000       
      12     -188.6270         2.000       
      11     -188.8298         2.000       
      10     -249.6338         2.000       
       9     -270.6145         2.000       
       8     -271.2839         2.000       
       7     -272.8329         2.000       
       6     -273.3688         2.000       
       5     -383.7116         2.000       
       4     -387.6548         2.000       
       3     -512.3802         2.000       
       2     -512.3830         2.000       
       1    -2748.9180         2.000       

AMS application finished. Exiting.
NORMAL TERMINATION
     Total cpu time:    3075.25
  Total system time:      12.07
 Total elapsed time:    3099.43
NORMAL TERMINATION with warnings
