srun: Job 663092 step creation temporarily disabled, retrying (Requested nodes are busy)
srun: Job 663092 step creation still disabled, retrying (Requested nodes are busy)
srun: Job 663092 step creation still disabled, retrying (Requested nodes are busy)
srun: Job 663092 step creation still disabled, retrying (Requested nodes are busy)
srun: Job 663092 step creation still disabled, retrying (Requested nodes are busy)
srun: Job 663092 step creation still disabled, retrying (Requested nodes are busy)
srun: Job 663092 step creation still disabled, retrying (Requested nodes are busy)
srun: Job 663092 step creation still disabled, retrying (Requested nodes are busy)
srun: Job 663092 step creation still disabled, retrying (Requested nodes are busy)
srun: Job 663092 step creation still disabled, retrying (Requested nodes are busy)
srun: Job 663092 step creation still disabled, retrying (Requested nodes are busy)
srun: Job 663092 step creation still disabled, retrying (Requested nodes are busy)
srun: Step created for StepId=663092.78

 *******************************************************************************
 *                                                                             *
 *  --------------------------------                                           *
 *   Amsterdam Modeling Suite (AMS)              2026.103                      *
 *  --------------------------------                                           *
 *                                               r260501 2026-05-01 873454b5   *
 *                                                                             *
 *                                                                             *
 *                              =================                              *
 *                              |               |                              *
 *                              |     A M S     |                              *
 *                              |               |                              *
 *                              =================                              *
 *                                                                             *
 *                                                                             *
 *   Online information and documentation:  https://www.scm.com/support/       *
 *   E-mail:  support@scm.com   info@scm.com                                   *
 *                                                                             *
 *   Scientific publications using AMS results must be properly referenced     *
 *   See the User Manuals (or the web site) for recommended citations          *
 *   The terms and conditions of the End User License Agreement apply to       *
 *   the use of AMS, https://www.scm.com/license-terms/                        *
 *                                                                             *
 **********************  x86_64_linux_intel / intelmpi  ************************
 
 Licensed to: Jong-June Jeon / University of Seoul 2026-06-02 13:44:15
 SCM User ID: u30731
  
 AMS 2026.103  RunTime: Jun04-2026 06:08:05  ShM Nodes: 1  Procs: 1

 AMS jobname: c2_fragB_ts
 AMS jobid  : 1298069041

 Start   directory: /gpfs/home1/yeseo1ee/projects/eda-asm-prediction/ADF_800/adf_outputs/batch_007/qmrxn20_sn2_C_E_D_D_A_C/
 Results directory: /gpfs/home1/yeseo1ee/projects/eda-asm-prediction/ADF_800/adf_outputs/batch_007/qmrxn20_sn2_C_E_D_D_A_C/c2_fragB_ts.results/
 Scratch directory: /tmp/amstmp_c2_fragB_ts_kid0.1298069041/

 RNG seed: 117368639 1150241863 -221786003 -2034627819 550040567 888351184 330989708 -1365834571



                      ************************************************************************
                      *  ADF 2026.103  RunTime: Jun04-2026 06:08:05  ShM Nodes: 1  Procs: 1  *
                      ************************************************************************
  

       ****************************
       * SINGLE POINT CALCULATION *
       ****************************

--------
Geometry
--------
Formula: C5H9ClN2
Atoms
  Index Symbol   x (angstrom)   y (angstrom)   z (angstrom)
      1      C     0.77984515    -0.01771309     0.04710492
      2      H     1.67744577     1.88709255     0.16163807
      3     Cl     2.96549623    -0.13715356    -0.49544269
      4      C     0.66127973     1.50830191     0.04065548
      5      C     0.45445142    -0.78975985    -1.14362139
      6      N     0.23886345    -1.43705153    -2.10284728
      7      N     0.93583558    -0.67563518     1.30703226
      8      H     1.51027713    -1.49845768     1.18048628
      9      H    -0.01774860    -0.94107423     1.53814334
     10      C    -0.14751304     2.04394022     1.21997864
     11      H    -1.19908137     1.79947709     1.10088770
     12      H     0.21149636     1.60560583     2.15270871
     13      H    -0.01085265     3.13067384     1.27457444
     14      C     0.11211773     2.00048428    -1.29074438
     15      H     0.74685123     1.68401442    -2.12229677
     16      H    -0.88954436     1.59252400    -1.43281039
     17      H     0.06280833     3.09440524    -1.29550166

Total System Charge              0.00000


----------------
ADF Engine Input
----------------
 
   Basis
     Type TZ2P
     Core None
   End
   XC
     GGA BLYP
     Dispersion GRIMME3 BJDAMP
   End
   Symmetry NOSYM
   NumericalQuality Normal
   Unrestricted No
   SCF
     Iterations 200
     Converge 1.0e-6
   End
   Save TAPE21
 

 Title: *** (NO TITLE) ***

 *** adf ***



 ===========================
 A T T A C H E D   F I L E S
 ===========================
  



 ===============================
 M O D E L   P A R A M E T E R S
 ===============================
  
 DENSITY FUNCTIONAL POTENTIAL (scf)
    LDA:                               Exchange only                           == Not Default ==
    Gradient Corrections:              Becke88 LYP                             == Not Default ==

 SPIN  (restricted / unrestr.)
    Molecule:                          Restricted                               
    Fragments:                         Restricted                               

 OTHER ASPECTS
    Relativistic Corrections:          scalar (ZORA,MAPA)                       

    Nuclear Charge Density Model:      Point Charge Nuclei                      
    Core Treatment:                    Frozen Orbital(s)                        

    Hyperfine or Zeeman Interaction:   ---                                      

 Settings for Grimme D3 dispersion correction

      damping                        BJ
      s6                          1.000
      s8                          2.700
      a1                          0.430
      a2                          4.236

 Other (technical) parameters

      alpha                      14.000
      version                         4
 


 Fragment File(s)
 ----------------
 C:
         file : /gpfs/home1/yeseo1ee/projects/eda-asm-prediction/ADF_800/adf_outputs/batch_007/qmrxn20_sn2_C_E_D_D_A_C/c2_fragB_ts.results/t21.50BA88D5.C
         jobid: 0
         title: Carbon (TZ2P)
 H:
         file : /gpfs/home1/yeseo1ee/projects/eda-asm-prediction/ADF_800/adf_outputs/batch_007/qmrxn20_sn2_C_E_D_D_A_C/c2_fragB_ts.results/t21.6F35CCAB.H
         jobid: 0
         title: Hydrogen (TZ2P)
 Cl:
         file : /gpfs/home1/yeseo1ee/projects/eda-asm-prediction/ADF_800/adf_outputs/batch_007/qmrxn20_sn2_C_E_D_D_A_C/c2_fragB_ts.results/t21.3FD35465.Cl
         jobid: 0
         title: Chlorine (TZ2P)
 N:
         file : /gpfs/home1/yeseo1ee/projects/eda-asm-prediction/ADF_800/adf_outputs/batch_007/qmrxn20_sn2_C_E_D_D_A_C/c2_fragB_ts.results/t21.44EAA48D.N
         jobid: 0
         title: Nitrogen (TZ2P)



 ===============
 G E O M E T R Y  ***  3D  Molecule  ***
 ===============
  

 ATOMS
 =====                            X Y Z                    CHARGE
                                (Angstrom)             Nucl     +Core       At.Mass
                       --------------------------    ----------------       -------
    1  C               0.7798   -0.0177    0.0471      6.00      6.00       12.0000
    2  H               1.6774    1.8871    0.1616      1.00      1.00        1.0078
    3  Cl              2.9655   -0.1372   -0.4954     17.00     17.00       34.9689
    4  C               0.6613    1.5083    0.0407      6.00      6.00       12.0000
    5  C               0.4545   -0.7898   -1.1436      6.00      6.00       12.0000
    6  N               0.2389   -1.4371   -2.1028      7.00      7.00       14.0031
    7  N               0.9358   -0.6756    1.3070      7.00      7.00       14.0031
    8  H               1.5103   -1.4985    1.1805      1.00      1.00        1.0078
    9  H              -0.0177   -0.9411    1.5381      1.00      1.00        1.0078
   10  C              -0.1475    2.0439    1.2200      6.00      6.00       12.0000
   11  H              -1.1991    1.7995    1.1009      1.00      1.00        1.0078
   12  H               0.2115    1.6056    2.1527      1.00      1.00        1.0078
   13  H              -0.0109    3.1307    1.2746      1.00      1.00        1.0078
   14  C               0.1121    2.0005   -1.2907      6.00      6.00       12.0000
   15  H               0.7469    1.6840   -2.1223      1.00      1.00        1.0078
   16  H              -0.8895    1.5925   -1.4328      1.00      1.00        1.0078
   17  H               0.0628    3.0944   -1.2955      1.00      1.00        1.0078


 FRAGMENTS
 =========                                     Atoms in this Fragment     Cart. coord.s (Angstrom)
                                               -------------------------------------------------------
    1  C                                                 1  C            0.7798   -0.0177    0.0471
    2  C                                                 4  C            0.6613    1.5083    0.0407
    3  C                                                 5  C            0.4545   -0.7898   -1.1436
    4  C                                                10  C           -0.1475    2.0439    1.2200
    5  C                                                14  C            0.1121    2.0005   -1.2907
    6  H                                                 2  H            1.6774    1.8871    0.1616
    7  H                                                 8  H            1.5103   -1.4985    1.1805
    8  H                                                 9  H           -0.0177   -0.9411    1.5381
    9  H                                                11  H           -1.1991    1.7995    1.1009
   10  H                                                12  H            0.2115    1.6056    2.1527
   11  H                                                13  H           -0.0109    3.1307    1.2746
   12  H                                                15  H            0.7469    1.6840   -2.1223
   13  H                                                16  H           -0.8895    1.5925   -1.4328
   14  H                                                17  H            0.0628    3.0944   -1.2955
   15  Cl                                                3  Cl           2.9655   -0.1372   -0.4954
   16  N                                                 6  N            0.2389   -1.4371   -2.1028
   17  N                                                 7  N            0.9358   -0.6756    1.3070


 Interatomic Distance Matrix (Angstrom)
 --------------------------------------

   1)     0.000
   2)     2.109   0.000
   3)     2.255   2.488   0.000
   4)     1.531   1.091   2.882   0.000
   5)     1.456   3.219   2.674   2.594   0.000
   6)     2.632   4.272   3.422   3.667   1.177   0.000
   7)     1.430   2.903   2.767   2.539   2.500   3.563   0.000
   8)     2.003   3.539   2.604   3.326   2.649   3.521   1.011   0.000
   9)     1.927   3.573   3.699   2.950   2.727   3.684   1.016   1.665   0.000
  10)     2.547   2.115   4.170   1.527   3.739   4.828   2.929   3.911   3.005   0.000
  11)     2.886   3.027   4.862   2.161   3.805   4.776   3.275   4.269   3.016   1.086
          0.000
  12)     2.719   2.488   4.199   2.162   4.082   5.231   2.538   3.502   2.630   1.091
          1.770   0.000
  13)     3.470   2.374   4.761   2.146   4.630   5.686   3.922   4.874   4.080   1.097
          1.793   1.774   0.000
  14)     2.512   2.138   3.653   1.522   2.815   3.534   3.819   4.506   4.083   2.524
          2.735   3.467   2.806   0.000
  15)     2.757   2.475   3.299   2.172   2.676   3.162   4.167   4.650   4.569   3.479
          3.767   4.309   3.769   1.093   0.000
  16)     2.751   3.036   4.328   2.141   2.750   3.302   3.998   4.706   4.001   2.791
          2.561   3.751   3.235   1.091   1.778   0.000
  17)     3.464   2.488   4.417   2.159   3.907   4.606   4.664   5.415   4.932   2.734
          3.002   3.759   2.571   1.095   1.772   1.784   0.000

 Min. Distance =    1.0115
 Max. Distance =    5.6863



 =====================================
 S Y M M E T R Y ,   E L E C T R O N S
 =====================================
  
 Symmetry: NOSYM

 Irreducible Representations, including subspecies
 -------------------------------------------------
 A


 Configuration of Valence Electrons
 ==================================
 ( determined in the SCF procedure )

 Total:   70

 Net Charge: 0 (Nuclei minus Electrons)

 Aufbau principle for MO occupations will be applied through SCF cycle no.     100
 Thereafter, the program will assign electrons to MOs that are spatially
 similar to the occupied MOs in a "reference" cycle ("KeepOrbitals").
 The reference cycle is always the PREVIOUS cycle: it will evolve with
 the SCF procedure.
 ***************************************************************************************************



                                      ****************************************
                                      *  B U I L D : (Fragments, Functions)  *
                                      ****************************************
  



 =======
 S F O s  ***  (Symmetrized Fragment Orbitals)  ***
 =======
  
 SFOs are linear combinations of (valence) Fragment Orbitals (FOs), such that the SFOs transform as the
 irreducible representations of the (molecular) symmetry group. Each SFO is therefore characterized by
 an irrep of the molecule and by a few (or only one) generating FOs.
 The SFOs constitute a symmetry-adapted basis for the Fock matrix. The MO eigenvector coefficients in
 this basis provide a direct interpretation of the MOs in terms of Frontier Orbital Theory.

 The SFOs are combined with auxiliary Core Functions (CFs) to ensure orthogonalization on the (frozen)
 Core Orbitals (COs). The Core-orthogonalized SFOs (CSFOs) constitute the true Fock basis.

 The FOs, and hence also the (C)SFOs are combinations of the elementary basis functions (BAS). The basis
 functions that participate in the description of the SFOs depend on the irrep. The indices of the
 involved functions are printed below for each irrep.
 (The complete list of primitive basis functions is printed in another section)

 Total nr. of (C)SFOs (summation over all irreps) :   315

 NOTE: a (C)SFO that is defined as a combination of more than one FO is usually NOT normalized.



                                       === A ===
 Nr. of SFOs :  315
 Cartesian basis functions that participate in this irrep (total number =   356) :
      1     2     3     4     5     6     9    12     7    10
     13     8    11    14    15    16    17    18    19    20
     21    22    23    24    25    26    27    28    29    30
     31    32    33    34    35    36    39    42    37    40
     43    38    41    44    45    46    47    48    49    50
     51    52    53    54    55    56    57    58    59    60
     61    62    63    64    65    66    69    72    67    70
     73    68    71    74    75    76    77    78    79    80
     81    82    83    84    85    86    87    88    89    90
     91    92    93    94    95    96    99   102    97   100
    103    98   101   104   105   106   107   108   109   110
    111   112   113   114   115   116   117   118   119   120
    121   122   123   124   125   126   129   132   127   130
    133   128   131   134   135   136   137   138   139   140
    141   142   143   144   145   146   147   148   149   150
    151   152   153   154   155   156   157   158   159   160
    161   162   163   164   165   166   167   168   169   170
    171   172   173   174   175   176   177   178   179   180
    181   182   183   184   185   186   187   188   189   190
    191   192   193   194   195   196   197   198   199   200
    201   202   203   204   205   206   207   208   209   210
    211   212   213   214   215   216   217   218   219   220
    221   222   223   224   225   226   227   228   229   230
    231   232   233   234   235   236   237   238   239   240
    241   242   243   244   245   246   247   248   249   250
    251   252   253   254   255   256   257   258   259   260
    261   262   269   270   271   263   266   272   275   278
    264   267   273   276   279   265   268   274   277   280
    281   282   283   284   285   286   287   288   289   290
    291   292   293   294   295   296   297   298   299   300
    301   302   305   308   303   306   309   304   307   310
    311   312   313   314   315   316   317   318   319   320
    321   322   323   324   325   326   327   328   329   330
    331   332   335   338   333   336   339   334   337   340
    341   342   343   344   345   346   347   348   349   350
    351   352   353   354   355   356

    SFO  (index         Fragment          Generating    Expansion in Fragment Orbitals
  indx  incl.CFs)   Occup   Orb.Energy   FragmentType  Coeff.   Orbital     on Fragment
 --------------------------------------------------------------------------------------
     1       1      2.000     -10.066 au  C             1.00      1 S               1
                        (    -273.921 eV)
     2       2      2.000      -0.501 au  C             1.00      2 S               1
                        (     -13.620 eV)
     3       3       --         0.373 au  C             1.00      3 S               1
                        (      10.158 eV)
     4       4       --         5.405 au  C             1.00      4 S               1
                        (     147.073 eV)
     5       5       --        49.848 au  C             1.00      5 S               1
                        (    1356.422 eV)
     6       6      0.667      -0.193 au  C             1.00      1 P:x             1
                        (      -5.239 eV)
     7       7       --         0.169 au  C             1.00      2 P:x             1
                        (       4.589 eV)
     8       8       --         2.013 au  C             1.00      3 P:x             1
                        (      54.789 eV)
     9       9      0.667      -0.193 au  C             1.00      1 P:y             1
                        (      -5.239 eV)
    10      10       --         0.169 au  C             1.00      2 P:y             1
                        (       4.589 eV)
    11      11       --         2.013 au  C             1.00      3 P:y             1
                        (      54.789 eV)
    12      12      0.667      -0.193 au  C             1.00      1 P:z             1
                        (      -5.239 eV)
    13      13       --         0.169 au  C             1.00      2 P:z             1
                        (       4.589 eV)
    14      14       --         2.013 au  C             1.00      3 P:z             1
                        (      54.789 eV)
    15      15       --         1.243 au  C             1.00      1 D:z2            1
                        (      33.824 eV)
    16      16       --         1.243 au  C             1.00      1 D:x2-y2         1
                        (      33.824 eV)
    17      17       --         1.243 au  C             1.00      1 D:xy            1
                        (      33.824 eV)
    18      18       --         1.243 au  C             1.00      1 D:xz            1
                        (      33.824 eV)
    19      19       --         1.243 au  C             1.00      1 D:yz            1
                        (      33.824 eV)
    20      20       --         4.016 au  C             1.00      1 F:z3            1
                        (     109.271 eV)
    21      21       --         4.016 au  C             1.00      1 F:z             1
                        (     109.271 eV)
    22      22       --         4.016 au  C             1.00      1 F:xyz           1
                        (     109.271 eV)
    23      23       --         4.016 au  C             1.00      1 F:z2x           1
                        (     109.271 eV)
    24      24       --         4.016 au  C             1.00      1 F:z2y           1
                        (     109.271 eV)
    25      25       --         4.016 au  C             1.00      1 F:x             1
                        (     109.271 eV)
    26      26       --         4.016 au  C             1.00      1 F:y             1
                        (     109.271 eV)
    27      27      2.000     -10.066 au  C             1.00      1 S               2
                        (    -273.921 eV)
    28      28      2.000      -0.501 au  C             1.00      2 S               2
                        (     -13.620 eV)
    29      29       --         0.373 au  C             1.00      3 S               2
                        (      10.158 eV)
    30      30       --         5.405 au  C             1.00      4 S               2
                        (     147.073 eV)
    31      31       --        49.848 au  C             1.00      5 S               2
                        (    1356.422 eV)
    32      32      0.667      -0.193 au  C             1.00      1 P:x             2
                        (      -5.239 eV)
    33      33       --         0.169 au  C             1.00      2 P:x             2
                        (       4.589 eV)
    34      34       --         2.013 au  C             1.00      3 P:x             2
                        (      54.789 eV)
    35      35      0.667      -0.193 au  C             1.00      1 P:y             2
                        (      -5.239 eV)
    36      36       --         0.169 au  C             1.00      2 P:y             2
                        (       4.589 eV)
    37      37       --         2.013 au  C             1.00      3 P:y             2
                        (      54.789 eV)
    38      38      0.667      -0.193 au  C             1.00      1 P:z             2
                        (      -5.239 eV)
    39      39       --         0.169 au  C             1.00      2 P:z             2
                        (       4.589 eV)
    40      40       --         2.013 au  C             1.00      3 P:z             2
                        (      54.789 eV)
    41      41       --         1.243 au  C             1.00      1 D:z2            2
                        (      33.824 eV)
    42      42       --         1.243 au  C             1.00      1 D:x2-y2         2
                        (      33.824 eV)
    43      43       --         1.243 au  C             1.00      1 D:xy            2
                        (      33.824 eV)
    44      44       --         1.243 au  C             1.00      1 D:xz            2
                        (      33.824 eV)
    45      45       --         1.243 au  C             1.00      1 D:yz            2
                        (      33.824 eV)
    46      46       --         4.016 au  C             1.00      1 F:z3            2
                        (     109.271 eV)
    47      47       --         4.016 au  C             1.00      1 F:z             2
                        (     109.271 eV)
    48      48       --         4.016 au  C             1.00      1 F:xyz           2
                        (     109.271 eV)
    49      49       --         4.016 au  C             1.00      1 F:z2x           2
                        (     109.271 eV)
    50      50       --         4.016 au  C             1.00      1 F:z2y           2
                        (     109.271 eV)
    51      51       --         4.016 au  C             1.00      1 F:x             2
                        (     109.271 eV)
    52      52       --         4.016 au  C             1.00      1 F:y             2
                        (     109.271 eV)
    53      53      2.000     -10.066 au  C             1.00      1 S               3
                        (    -273.921 eV)
    54      54      2.000      -0.501 au  C             1.00      2 S               3
                        (     -13.620 eV)
    55      55       --         0.373 au  C             1.00      3 S               3
                        (      10.158 eV)
    56      56       --         5.405 au  C             1.00      4 S               3
                        (     147.073 eV)
    57      57       --        49.848 au  C             1.00      5 S               3
                        (    1356.422 eV)
    58      58      0.667      -0.193 au  C             1.00      1 P:x             3
                        (      -5.239 eV)
    59      59       --         0.169 au  C             1.00      2 P:x             3
                        (       4.589 eV)
    60      60       --         2.013 au  C             1.00      3 P:x             3
                        (      54.789 eV)
    61      61      0.667      -0.193 au  C             1.00      1 P:y             3
                        (      -5.239 eV)
    62      62       --         0.169 au  C             1.00      2 P:y             3
                        (       4.589 eV)
    63      63       --         2.013 au  C             1.00      3 P:y             3
                        (      54.789 eV)
    64      64      0.667      -0.193 au  C             1.00      1 P:z             3
                        (      -5.239 eV)
    65      65       --         0.169 au  C             1.00      2 P:z             3
                        (       4.589 eV)
    66      66       --         2.013 au  C             1.00      3 P:z             3
                        (      54.789 eV)
    67      67       --         1.243 au  C             1.00      1 D:z2            3
                        (      33.824 eV)
    68      68       --         1.243 au  C             1.00      1 D:x2-y2         3
                        (      33.824 eV)
    69      69       --         1.243 au  C             1.00      1 D:xy            3
                        (      33.824 eV)
    70      70       --         1.243 au  C             1.00      1 D:xz            3
                        (      33.824 eV)
    71      71       --         1.243 au  C             1.00      1 D:yz            3
                        (      33.824 eV)
    72      72       --         4.016 au  C             1.00      1 F:z3            3
                        (     109.271 eV)
    73      73       --         4.016 au  C             1.00      1 F:z             3
                        (     109.271 eV)
    74      74       --         4.016 au  C             1.00      1 F:xyz           3
                        (     109.271 eV)
    75      75       --         4.016 au  C             1.00      1 F:z2x           3
                        (     109.271 eV)
    76      76       --         4.016 au  C             1.00      1 F:z2y           3
                        (     109.271 eV)
    77      77       --         4.016 au  C             1.00      1 F:x             3
                        (     109.271 eV)
    78      78       --         4.016 au  C             1.00      1 F:y             3
                        (     109.271 eV)
    79      79      2.000     -10.066 au  C             1.00      1 S               4
                        (    -273.921 eV)
    80      80      2.000      -0.501 au  C             1.00      2 S               4
                        (     -13.620 eV)
    81      81       --         0.373 au  C             1.00      3 S               4
                        (      10.158 eV)
    82      82       --         5.405 au  C             1.00      4 S               4
                        (     147.073 eV)
    83      83       --        49.848 au  C             1.00      5 S               4
                        (    1356.422 eV)
    84      84      0.667      -0.193 au  C             1.00      1 P:x             4
                        (      -5.239 eV)
    85      85       --         0.169 au  C             1.00      2 P:x             4
                        (       4.589 eV)
    86      86       --         2.013 au  C             1.00      3 P:x             4
                        (      54.789 eV)
    87      87      0.667      -0.193 au  C             1.00      1 P:y             4
                        (      -5.239 eV)
    88      88       --         0.169 au  C             1.00      2 P:y             4
                        (       4.589 eV)
    89      89       --         2.013 au  C             1.00      3 P:y             4
                        (      54.789 eV)
    90      90      0.667      -0.193 au  C             1.00      1 P:z             4
                        (      -5.239 eV)
    91      91       --         0.169 au  C             1.00      2 P:z             4
                        (       4.589 eV)
    92      92       --         2.013 au  C             1.00      3 P:z             4
                        (      54.789 eV)
    93      93       --         1.243 au  C             1.00      1 D:z2            4
                        (      33.824 eV)
    94      94       --         1.243 au  C             1.00      1 D:x2-y2         4
                        (      33.824 eV)
    95      95       --         1.243 au  C             1.00      1 D:xy            4
                        (      33.824 eV)
    96      96       --         1.243 au  C             1.00      1 D:xz            4
                        (      33.824 eV)
    97      97       --         1.243 au  C             1.00      1 D:yz            4
                        (      33.824 eV)
    98      98       --         4.016 au  C             1.00      1 F:z3            4
                        (     109.271 eV)
    99      99       --         4.016 au  C             1.00      1 F:z             4
                        (     109.271 eV)
   100     100       --         4.016 au  C             1.00      1 F:xyz           4
                        (     109.271 eV)
   101     101       --         4.016 au  C             1.00      1 F:z2x           4
                        (     109.271 eV)
   102     102       --         4.016 au  C             1.00      1 F:z2y           4
                        (     109.271 eV)
   103     103       --         4.016 au  C             1.00      1 F:x             4
                        (     109.271 eV)
   104     104       --         4.016 au  C             1.00      1 F:y             4
                        (     109.271 eV)
   105     105      2.000     -10.066 au  C             1.00      1 S               5
                        (    -273.921 eV)
   106     106      2.000      -0.501 au  C             1.00      2 S               5
                        (     -13.620 eV)
   107     107       --         0.373 au  C             1.00      3 S               5
                        (      10.158 eV)
   108     108       --         5.405 au  C             1.00      4 S               5
                        (     147.073 eV)
   109     109       --        49.848 au  C             1.00      5 S               5
                        (    1356.422 eV)
   110     110      0.667      -0.193 au  C             1.00      1 P:x             5
                        (      -5.239 eV)
   111     111       --         0.169 au  C             1.00      2 P:x             5
                        (       4.589 eV)
   112     112       --         2.013 au  C             1.00      3 P:x             5
                        (      54.789 eV)
   113     113      0.667      -0.193 au  C             1.00      1 P:y             5
                        (      -5.239 eV)
   114     114       --         0.169 au  C             1.00      2 P:y             5
                        (       4.589 eV)
   115     115       --         2.013 au  C             1.00      3 P:y             5
                        (      54.789 eV)
   116     116      0.667      -0.193 au  C             1.00      1 P:z             5
                        (      -5.239 eV)
   117     117       --         0.169 au  C             1.00      2 P:z             5
                        (       4.589 eV)
   118     118       --         2.013 au  C             1.00      3 P:z             5
                        (      54.789 eV)
   119     119       --         1.243 au  C             1.00      1 D:z2            5
                        (      33.824 eV)
   120     120       --         1.243 au  C             1.00      1 D:x2-y2         5
                        (      33.824 eV)
   121     121       --         1.243 au  C             1.00      1 D:xy            5
                        (      33.824 eV)
   122     122       --         1.243 au  C             1.00      1 D:xz            5
                        (      33.824 eV)
   123     123       --         1.243 au  C             1.00      1 D:yz            5
                        (      33.824 eV)
   124     124       --         4.016 au  C             1.00      1 F:z3            5
                        (     109.271 eV)
   125     125       --         4.016 au  C             1.00      1 F:z             5
                        (     109.271 eV)
   126     126       --         4.016 au  C             1.00      1 F:xyz           5
                        (     109.271 eV)
   127     127       --         4.016 au  C             1.00      1 F:z2x           5
                        (     109.271 eV)
   128     128       --         4.016 au  C             1.00      1 F:z2y           5
                        (     109.271 eV)
   129     129       --         4.016 au  C             1.00      1 F:x             5
                        (     109.271 eV)
   130     130       --         4.016 au  C             1.00      1 F:y             5
                        (     109.271 eV)
   131     131      1.000      -0.240 au  H             1.00      1 S               6
                        (      -6.532 eV)
   132     132       --         0.088 au  H             1.00      2 S               6
                        (       2.394 eV)
   133     133       --         1.502 au  H             1.00      3 S               6
                        (      40.869 eV)
   134     134       --         0.406 au  H             1.00      1 P:x             6
                        (      11.051 eV)
   135     135       --         0.406 au  H             1.00      1 P:y             6
                        (      11.051 eV)
   136     136       --         0.406 au  H             1.00      1 P:z             6
                        (      11.051 eV)
   137     137       --         2.569 au  H             1.00      1 D:z2            6
                        (      69.917 eV)
   138     138       --         2.569 au  H             1.00      1 D:x2-y2         6
                        (      69.917 eV)
   139     139       --         2.569 au  H             1.00      1 D:xy            6
                        (      69.917 eV)
   140     140       --         2.569 au  H             1.00      1 D:xz            6
                        (      69.917 eV)
   141     141       --         2.569 au  H             1.00      1 D:yz            6
                        (      69.917 eV)
   142     142      1.000      -0.240 au  H             1.00      1 S               7
                        (      -6.532 eV)
   143     143       --         0.088 au  H             1.00      2 S               7
                        (       2.394 eV)
   144     144       --         1.502 au  H             1.00      3 S               7
                        (      40.869 eV)
   145     145       --         0.406 au  H             1.00      1 P:x             7
                        (      11.051 eV)
   146     146       --         0.406 au  H             1.00      1 P:y             7
                        (      11.051 eV)
   147     147       --         0.406 au  H             1.00      1 P:z             7
                        (      11.051 eV)
   148     148       --         2.569 au  H             1.00      1 D:z2            7
                        (      69.917 eV)
   149     149       --         2.569 au  H             1.00      1 D:x2-y2         7
                        (      69.917 eV)
   150     150       --         2.569 au  H             1.00      1 D:xy            7
                        (      69.917 eV)
   151     151       --         2.569 au  H             1.00      1 D:xz            7
                        (      69.917 eV)
   152     152       --         2.569 au  H             1.00      1 D:yz            7
                        (      69.917 eV)
   153     153      1.000      -0.240 au  H             1.00      1 S               8
                        (      -6.532 eV)
   154     154       --         0.088 au  H             1.00      2 S               8
                        (       2.394 eV)
   155     155       --         1.502 au  H             1.00      3 S               8
                        (      40.869 eV)
   156     156       --         0.406 au  H             1.00      1 P:x             8
                        (      11.051 eV)
   157     157       --         0.406 au  H             1.00      1 P:y             8
                        (      11.051 eV)
   158     158       --         0.406 au  H             1.00      1 P:z             8
                        (      11.051 eV)
   159     159       --         2.569 au  H             1.00      1 D:z2            8
                        (      69.917 eV)
   160     160       --         2.569 au  H             1.00      1 D:x2-y2         8
                        (      69.917 eV)
   161     161       --         2.569 au  H             1.00      1 D:xy            8
                        (      69.917 eV)
   162     162       --         2.569 au  H             1.00      1 D:xz            8
                        (      69.917 eV)
   163     163       --         2.569 au  H             1.00      1 D:yz            8
                        (      69.917 eV)
   164     164      1.000      -0.240 au  H             1.00      1 S               9
                        (      -6.532 eV)
   165     165       --         0.088 au  H             1.00      2 S               9
                        (       2.394 eV)
   166     166       --         1.502 au  H             1.00      3 S               9
                        (      40.869 eV)
   167     167       --         0.406 au  H             1.00      1 P:x             9
                        (      11.051 eV)
   168     168       --         0.406 au  H             1.00      1 P:y             9
                        (      11.051 eV)
   169     169       --         0.406 au  H             1.00      1 P:z             9
                        (      11.051 eV)
   170     170       --         2.569 au  H             1.00      1 D:z2            9
                        (      69.917 eV)
   171     171       --         2.569 au  H             1.00      1 D:x2-y2         9
                        (      69.917 eV)
   172     172       --         2.569 au  H             1.00      1 D:xy            9
                        (      69.917 eV)
   173     173       --         2.569 au  H             1.00      1 D:xz            9
                        (      69.917 eV)
   174     174       --         2.569 au  H             1.00      1 D:yz            9
                        (      69.917 eV)
   175     175      1.000      -0.240 au  H             1.00      1 S              10
                        (      -6.532 eV)
   176     176       --         0.088 au  H             1.00      2 S              10
                        (       2.394 eV)
   177     177       --         1.502 au  H             1.00      3 S              10
                        (      40.869 eV)
   178     178       --         0.406 au  H             1.00      1 P:x            10
                        (      11.051 eV)
   179     179       --         0.406 au  H             1.00      1 P:y            10
                        (      11.051 eV)
   180     180       --         0.406 au  H             1.00      1 P:z            10
                        (      11.051 eV)
   181     181       --         2.569 au  H             1.00      1 D:z2           10
                        (      69.917 eV)
   182     182       --         2.569 au  H             1.00      1 D:x2-y2        10
                        (      69.917 eV)
   183     183       --         2.569 au  H             1.00      1 D:xy           10
                        (      69.917 eV)
   184     184       --         2.569 au  H             1.00      1 D:xz           10
                        (      69.917 eV)
   185     185       --         2.569 au  H             1.00      1 D:yz           10
                        (      69.917 eV)
   186     186      1.000      -0.240 au  H             1.00      1 S              11
                        (      -6.532 eV)
   187     187       --         0.088 au  H             1.00      2 S              11
                        (       2.394 eV)
   188     188       --         1.502 au  H             1.00      3 S              11
                        (      40.869 eV)
   189     189       --         0.406 au  H             1.00      1 P:x            11
                        (      11.051 eV)
   190     190       --         0.406 au  H             1.00      1 P:y            11
                        (      11.051 eV)
   191     191       --         0.406 au  H             1.00      1 P:z            11
                        (      11.051 eV)
   192     192       --         2.569 au  H             1.00      1 D:z2           11
                        (      69.917 eV)
   193     193       --         2.569 au  H             1.00      1 D:x2-y2        11
                        (      69.917 eV)
   194     194       --         2.569 au  H             1.00      1 D:xy           11
                        (      69.917 eV)
   195     195       --         2.569 au  H             1.00      1 D:xz           11
                        (      69.917 eV)
   196     196       --         2.569 au  H             1.00      1 D:yz           11
                        (      69.917 eV)
   197     197      1.000      -0.240 au  H             1.00      1 S              12
                        (      -6.532 eV)
   198     198       --         0.088 au  H             1.00      2 S              12
                        (       2.394 eV)
   199     199       --         1.502 au  H             1.00      3 S              12
                        (      40.869 eV)
   200     200       --         0.406 au  H             1.00      1 P:x            12
                        (      11.051 eV)
   201     201       --         0.406 au  H             1.00      1 P:y            12
                        (      11.051 eV)
   202     202       --         0.406 au  H             1.00      1 P:z            12
                        (      11.051 eV)
   203     203       --         2.569 au  H             1.00      1 D:z2           12
                        (      69.917 eV)
   204     204       --         2.569 au  H             1.00      1 D:x2-y2        12
                        (      69.917 eV)
   205     205       --         2.569 au  H             1.00      1 D:xy           12
                        (      69.917 eV)
   206     206       --         2.569 au  H             1.00      1 D:xz           12
                        (      69.917 eV)
   207     207       --         2.569 au  H             1.00      1 D:yz           12
                        (      69.917 eV)
   208     208      1.000      -0.240 au  H             1.00      1 S              13
                        (      -6.532 eV)
   209     209       --         0.088 au  H             1.00      2 S              13
                        (       2.394 eV)
   210     210       --         1.502 au  H             1.00      3 S              13
                        (      40.869 eV)
   211     211       --         0.406 au  H             1.00      1 P:x            13
                        (      11.051 eV)
   212     212       --         0.406 au  H             1.00      1 P:y            13
                        (      11.051 eV)
   213     213       --         0.406 au  H             1.00      1 P:z            13
                        (      11.051 eV)
   214     214       --         2.569 au  H             1.00      1 D:z2           13
                        (      69.917 eV)
   215     215       --         2.569 au  H             1.00      1 D:x2-y2        13
                        (      69.917 eV)
   216     216       --         2.569 au  H             1.00      1 D:xy           13
                        (      69.917 eV)
   217     217       --         2.569 au  H             1.00      1 D:xz           13
                        (      69.917 eV)
   218     218       --         2.569 au  H             1.00      1 D:yz           13
                        (      69.917 eV)
   219     219      1.000      -0.240 au  H             1.00      1 S              14
                        (      -6.532 eV)
   220     220       --         0.088 au  H             1.00      2 S              14
                        (       2.394 eV)
   221     221       --         1.502 au  H             1.00      3 S              14
                        (      40.869 eV)
   222     222       --         0.406 au  H             1.00      1 P:x            14
                        (      11.051 eV)
   223     223       --         0.406 au  H             1.00      1 P:y            14
                        (      11.051 eV)
   224     224       --         0.406 au  H             1.00      1 P:z            14
                        (      11.051 eV)
   225     225       --         2.569 au  H             1.00      1 D:z2           14
                        (      69.917 eV)
   226     226       --         2.569 au  H             1.00      1 D:x2-y2        14
                        (      69.917 eV)
   227     227       --         2.569 au  H             1.00      1 D:xy           14
                        (      69.917 eV)
   228     228       --         2.569 au  H             1.00      1 D:xz           14
                        (      69.917 eV)
   229     229       --         2.569 au  H             1.00      1 D:yz           14
                        (      69.917 eV)
   230     230      2.000    -101.116 au  Cl            1.00      1 S              15
                        (   -2751.516 eV)
   231     231      2.000      -9.276 au  Cl            1.00      2 S              15
                        (    -252.419 eV)
   232     232      2.000      -0.754 au  Cl            1.00      3 S              15
                        (     -20.523 eV)
   233     233       --         0.194 au  Cl            1.00      4 S              15
                        (       5.292 eV)
   234     234       --         1.998 au  Cl            1.00      5 S              15
                        (      54.377 eV)
   235     235       --        12.618 au  Cl            1.00      6 S              15
                        (     343.355 eV)
   236     236       --       205.328 au  Cl            1.00      7 S              15
                        (    5587.258 eV)
   237     237      2.000      -7.038 au  Cl            1.00      1 P:x            15
                        (    -191.503 eV)
   238     238      1.667      -0.310 au  Cl            1.00      2 P:x            15
                        (      -8.439 eV)
   239     239       --         0.226 au  Cl            1.00      3 P:x            15
                        (       6.147 eV)
   240     240       --         2.102 au  Cl            1.00      4 P:x            15
                        (      57.194 eV)
   241     241       --        18.665 au  Cl            1.00      5 P:x            15
                        (     507.904 eV)
   242     242      2.000      -7.038 au  Cl            1.00      1 P:y            15
                        (    -191.503 eV)
   243     243      1.667      -0.310 au  Cl            1.00      2 P:y            15
                        (      -8.439 eV)
   244     244       --         0.226 au  Cl            1.00      3 P:y            15
                        (       6.147 eV)
   245     245       --         2.102 au  Cl            1.00      4 P:y            15
                        (      57.194 eV)
   246     246       --        18.665 au  Cl            1.00      5 P:y            15
                        (     507.904 eV)
   247     247      2.000      -7.038 au  Cl            1.00      1 P:z            15
                        (    -191.503 eV)
   248     248      1.667      -0.310 au  Cl            1.00      2 P:z            15
                        (      -8.439 eV)
   249     249       --         0.226 au  Cl            1.00      3 P:z            15
                        (       6.147 eV)
   250     250       --         2.102 au  Cl            1.00      4 P:z            15
                        (      57.194 eV)
   251     251       --        18.665 au  Cl            1.00      5 P:z            15
                        (     507.904 eV)
   252     252       --         0.388 au  Cl            1.00      1 D:z2           15
                        (      10.568 eV)
   253     253       --         0.388 au  Cl            1.00      1 D:x2-y2        15
                        (      10.568 eV)
   254     254       --         0.388 au  Cl            1.00      1 D:xy           15
                        (      10.568 eV)
   255     255       --         0.388 au  Cl            1.00      1 D:xz           15
                        (      10.568 eV)
   256     256       --         0.388 au  Cl            1.00      1 D:yz           15
                        (      10.568 eV)
   257     257       --         1.191 au  Cl            1.00      1 F:z3           15
                        (      32.399 eV)
   258     258       --         1.191 au  Cl            1.00      1 F:z            15
                        (      32.399 eV)
   259     259       --         1.191 au  Cl            1.00      1 F:xyz          15
                        (      32.399 eV)
   260     260       --         1.191 au  Cl            1.00      1 F:z2x          15
                        (      32.399 eV)
   261     261       --         1.191 au  Cl            1.00      1 F:z2y          15
                        (      32.399 eV)
   262     262       --         1.191 au  Cl            1.00      1 F:x            15
                        (      32.399 eV)
   263     263       --         1.191 au  Cl            1.00      1 F:y            15
                        (      32.399 eV)
   264     264      2.000     -14.160 au  N             1.00      1 S              16
                        (    -385.319 eV)
   265     265      2.000      -0.678 au  N             1.00      2 S              16
                        (     -18.450 eV)
   266     266       --         0.517 au  N             1.00      3 S              16
                        (      14.073 eV)
   267     267       --         6.872 au  N             1.00      4 S              16
                        (     186.990 eV)
   268     268       --        63.432 au  N             1.00      5 S              16
                        (    1726.082 eV)
   269     269      1.000      -0.260 au  N             1.00      1 P:x            16
                        (      -7.062 eV)
   270     270       --         0.281 au  N             1.00      2 P:x            16
                        (       7.649 eV)
   271     271       --         3.275 au  N             1.00      3 P:x            16
                        (      89.105 eV)
   272     272      1.000      -0.260 au  N             1.00      1 P:y            16
                        (      -7.062 eV)
   273     273       --         0.281 au  N             1.00      2 P:y            16
                        (       7.649 eV)
   274     274       --         3.275 au  N             1.00      3 P:y            16
                        (      89.105 eV)
   275     275      1.000      -0.260 au  N             1.00      1 P:z            16
                        (      -7.062 eV)
   276     276       --         0.281 au  N             1.00      2 P:z            16
                        (       7.649 eV)
   277     277       --         3.275 au  N             1.00      3 P:z            16
                        (      89.105 eV)
   278     278       --         1.250 au  N             1.00      1 D:z2           16
                        (      34.005 eV)
   279     279       --         1.250 au  N             1.00      1 D:x2-y2        16
                        (      34.005 eV)
   280     280       --         1.250 au  N             1.00      1 D:xy           16
                        (      34.005 eV)
   281     281       --         1.250 au  N             1.00      1 D:xz           16
                        (      34.005 eV)
   282     282       --         1.250 au  N             1.00      1 D:yz           16
                        (      34.005 eV)
   283     283       --         4.013 au  N             1.00      1 F:z3           16
                        (     109.190 eV)
   284     284       --         4.013 au  N             1.00      1 F:z            16
                        (     109.190 eV)
   285     285       --         4.013 au  N             1.00      1 F:xyz          16
                        (     109.190 eV)
   286     286       --         4.013 au  N             1.00      1 F:z2x          16
                        (     109.190 eV)
   287     287       --         4.013 au  N             1.00      1 F:z2y          16
                        (     109.190 eV)
   288     288       --         4.013 au  N             1.00      1 F:x            16
                        (     109.190 eV)
   289     289       --         4.013 au  N             1.00      1 F:y            16
                        (     109.190 eV)
   290     290      2.000     -14.160 au  N             1.00      1 S              17
                        (    -385.319 eV)
   291     291      2.000      -0.678 au  N             1.00      2 S              17
                        (     -18.450 eV)
   292     292       --         0.517 au  N             1.00      3 S              17
                        (      14.073 eV)
   293     293       --         6.872 au  N             1.00      4 S              17
                        (     186.990 eV)
   294     294       --        63.432 au  N             1.00      5 S              17
                        (    1726.082 eV)
   295     295      1.000      -0.260 au  N             1.00      1 P:x            17
                        (      -7.062 eV)
   296     296       --         0.281 au  N             1.00      2 P:x            17
                        (       7.649 eV)
   297     297       --         3.275 au  N             1.00      3 P:x            17
                        (      89.105 eV)
   298     298      1.000      -0.260 au  N             1.00      1 P:y            17
                        (      -7.062 eV)
   299     299       --         0.281 au  N             1.00      2 P:y            17
                        (       7.649 eV)
   300     300       --         3.275 au  N             1.00      3 P:y            17
                        (      89.105 eV)
   301     301      1.000      -0.260 au  N             1.00      1 P:z            17
                        (      -7.062 eV)
   302     302       --         0.281 au  N             1.00      2 P:z            17
                        (       7.649 eV)
   303     303       --         3.275 au  N             1.00      3 P:z            17
                        (      89.105 eV)
   304     304       --         1.250 au  N             1.00      1 D:z2           17
                        (      34.005 eV)
   305     305       --         1.250 au  N             1.00      1 D:x2-y2        17
                        (      34.005 eV)
   306     306       --         1.250 au  N             1.00      1 D:xy           17
                        (      34.005 eV)
   307     307       --         1.250 au  N             1.00      1 D:xz           17
                        (      34.005 eV)
   308     308       --         1.250 au  N             1.00      1 D:yz           17
                        (      34.005 eV)
   309     309       --         4.013 au  N             1.00      1 F:z3           17
                        (     109.190 eV)
   310     310       --         4.013 au  N             1.00      1 F:z            17
                        (     109.190 eV)
   311     311       --         4.013 au  N             1.00      1 F:xyz          17
                        (     109.190 eV)
   312     312       --         4.013 au  N             1.00      1 F:z2x          17
                        (     109.190 eV)
   313     313       --         4.013 au  N             1.00      1 F:z2y          17
                        (     109.190 eV)
   314     314       --         4.013 au  N             1.00      1 F:x            17
                        (     109.190 eV)
   315     315       --         4.013 au  N             1.00      1 F:y            17
                        (     109.190 eV)



 ================================
 (Slater-type)  F U N C T I O N S  ***  (Basis and Fit)  ***
 ================================
  

 Atom Type    1  (C)
 ==============

 Valence Basis Sets:  10
 -----------------------
   1 S    7.680000
   1 S    5.000000
   2 S    1.280000
   2 S    2.100000
   2 S    4.600000
   2 P    0.820000
   2 P    1.480000
   2 P    2.940000
   3 D    2.200000
   4 F    3.300000

 Atom Type    2  (H)
 ==============

 Valence Basis Sets:   5
 -----------------------
   1 S    0.690000
   1 S    0.920000
   1 S    1.580000
   2 P    1.250000
   3 D    2.500000

 Atom Type    3  (Cl)
 ==============

 Valence Basis Sets:  14
 -----------------------
   1 S   20.300000
   1 S   15.250000
   2 S    6.250000
   2 S    4.450000
   2 P    8.850000
   2 P    5.050000
   3 S    3.450000
   3 S    2.300000
   3 S    1.600000
   3 P    3.350000
   3 P    2.050000
   3 P    1.200000
   3 D    2.000000
   4 F    2.000000

 Atom Type    4  (N)
 ==============

 Valence Basis Sets:  10
 -----------------------
   1 S    8.740000
   1 S    5.900000
   2 S    5.150000
   2 S    2.500000
   2 S    1.500000
   2 P    3.680000
   2 P    1.880000
   2 P    1.000000
   3 D    2.200000
   4 F    3.300000


 BAS: List of all Elementary Cartesian Basis Functions
 =====================================================

 The numbering in the list below (to the right of the function characteristics) is referred
 to in print-outs of MO eigenvectors and Mulliken populations in the BAS representation
 (as contrasted to the SFO representation).

 Notes:
 1. The functions are characterized by a polynomial prefactor (powers of x,y,z and r) and
    an exponential decay factor alpha.
 2. Since the basis sets are specific for an atom TYPE, the individual functions occur on
    all atoms of that type.
 3. The word 'Core' in the left margin signals that it is a Core Function (CF) : not a
    degree of freedom in the valence set, but only used to ensure orthogonalization of
    the other valence basis functions on the frozen Core Orbitals.


 (power of) X  Y  Z  R     Alpha  on Atom
            ==========     =====     ==========

 C                                    1    2    3    4    5
                                  ---------------------------------------------------------------------------
            0  0  0  0     7.680      1   31   61   91  121
            0  0  0  0     5.000      2   32   62   92  122
            0  0  0  1     1.280      3   33   63   93  123
            0  0  0  1     2.100      4   34   64   94  124
            0  0  0  1     4.600      5   35   65   95  125
            1  0  0  0     0.820      6   36   66   96  126
            0  1  0  0     0.820      7   37   67   97  127
            0  0  1  0     0.820      8   38   68   98  128
            1  0  0  0     1.480      9   39   69   99  129
            0  1  0  0     1.480     10   40   70  100  130
            0  0  1  0     1.480     11   41   71  101  131
            1  0  0  0     2.940     12   42   72  102  132
            0  1  0  0     2.940     13   43   73  103  133
            0  0  1  0     2.940     14   44   74  104  134
            2  0  0  0     2.200     15   45   75  105  135
            1  1  0  0     2.200     16   46   76  106  136
            1  0  1  0     2.200     17   47   77  107  137
            0  2  0  0     2.200     18   48   78  108  138
            0  1  1  0     2.200     19   49   79  109  139
            0  0  2  0     2.200     20   50   80  110  140
            3  0  0  0     3.300     21   51   81  111  141
            2  1  0  0     3.300     22   52   82  112  142
            2  0  1  0     3.300     23   53   83  113  143
            1  2  0  0     3.300     24   54   84  114  144
            1  1  1  0     3.300     25   55   85  115  145
            1  0  2  0     3.300     26   56   86  116  146
            0  3  0  0     3.300     27   57   87  117  147
            0  2  1  0     3.300     28   58   88  118  148
            0  1  2  0     3.300     29   59   89  119  149
            0  0  3  0     3.300     30   60   90  120  150

 H                                    6    7    8    9   10   11   12   13   14
                                  ---------------------------------------------------------------------------
            0  0  0  0     0.690    151  163  175  187  199  211  223  235  247
            0  0  0  0     0.920    152  164  176  188  200  212  224  236  248
            0  0  0  0     1.580    153  165  177  189  201  213  225  237  249
            1  0  0  0     1.250    154  166  178  190  202  214  226  238  250
            0  1  0  0     1.250    155  167  179  191  203  215  227  239  251
            0  0  1  0     1.250    156  168  180  192  204  216  228  240  252
            2  0  0  0     2.500    157  169  181  193  205  217  229  241  253
            1  1  0  0     2.500    158  170  182  194  206  218  230  242  254
            1  0  1  0     2.500    159  171  183  195  207  219  231  243  255
            0  2  0  0     2.500    160  172  184  196  208  220  232  244  256
            0  1  1  0     2.500    161  173  185  197  209  221  233  245  257
            0  0  2  0     2.500    162  174  186  198  210  222  234  246  258

 Cl                                  15
                                  ---------------------------------------------------------------------------
            0  0  0  0    20.300    259
            0  0  0  0    15.250    260
            0  0  0  1     6.250    261
            0  0  0  1     4.450    262
            1  0  0  0     8.850    263
            0  1  0  0     8.850    264
            0  0  1  0     8.850    265
            1  0  0  0     5.050    266
            0  1  0  0     5.050    267
            0  0  1  0     5.050    268
            0  0  0  2     3.450    269
            0  0  0  2     2.300    270
            0  0  0  2     1.600    271
            1  0  0  1     3.350    272
            0  1  0  1     3.350    273
            0  0  1  1     3.350    274
            1  0  0  1     2.050    275
            0  1  0  1     2.050    276
            0  0  1  1     2.050    277
            1  0  0  1     1.200    278
            0  1  0  1     1.200    279
            0  0  1  1     1.200    280
            2  0  0  0     2.000    281
            1  1  0  0     2.000    282
            1  0  1  0     2.000    283
            0  2  0  0     2.000    284
            0  1  1  0     2.000    285
            0  0  2  0     2.000    286
            3  0  0  0     2.000    287
            2  1  0  0     2.000    288
            2  0  1  0     2.000    289
            1  2  0  0     2.000    290
            1  1  1  0     2.000    291
            1  0  2  0     2.000    292
            0  3  0  0     2.000    293
            0  2  1  0     2.000    294
            0  1  2  0     2.000    295
            0  0  3  0     2.000    296

 N                                   16   17
                                  ---------------------------------------------------------------------------
            0  0  0  0     8.740    297  327
            0  0  0  0     5.900    298  328
            0  0  0  1     5.150    299  329
            0  0  0  1     2.500    300  330
            0  0  0  1     1.500    301  331
            1  0  0  0     3.680    302  332
            0  1  0  0     3.680    303  333
            0  0  1  0     3.680    304  334
            1  0  0  0     1.880    305  335
            0  1  0  0     1.880    306  336
            0  0  1  0     1.880    307  337
            1  0  0  0     1.000    308  338
            0  1  0  0     1.000    309  339
            0  0  1  0     1.000    310  340
            2  0  0  0     2.200    311  341
            1  1  0  0     2.200    312  342
            1  0  1  0     2.200    313  343
            0  2  0  0     2.200    314  344
            0  1  1  0     2.200    315  345
            0  0  2  0     2.200    316  346
            3  0  0  0     3.300    317  347
            2  1  0  0     3.300    318  348
            2  0  1  0     3.300    319  349
            1  2  0  0     3.300    320  350
            1  1  1  0     3.300    321  351
            1  0  2  0     3.300    322  352
            0  3  0  0     3.300    323  353
            0  2  1  0     3.300    324  354
            0  1  2  0     3.300    325  355
            0  0  3  0     3.300    326  356

 Total number of charge fitting functions (nprimf)      1144
 Total number of Cartesian basis functions (naos)        356
 Total number of Cartesian core functions  (ncos)          0

 ***************************************************************************************************



                                              ***********************
                                              *  T E C H N I C A L  *
                                              ***********************
  



 =============================================================
 P A R A L L E L I Z A T I O N  and  V E C T O R I Z A T I O N
 =============================================================
  
 Nr of parallel processes:                                1
 Maximum vector length in NumInt loops:                 128



 =====================
 S C F   U P D A T E S
 =====================
  
 Max. nr. of cycles:                               200
 Convergence criterion:                              0.0000010000
   secondary criterion:                              0.0010000000

 Mix parameter (when DIIS does not apply):           0.2000000000
 Mixed ADIIS+SDIIS will be used                  
    Max number of expansion vectors:                10
    Pure ADIIS when Max([F,P]) is above              0.1000000000
    Pure SDIIS when Max([F,P]) is below              0.0010000000
 Automatic ElectronSmearing (in case of problematic SCF convergence) disabled



 =================
 P R E C I S I O N  ***  (General: NumInt, NeglectFunctionTails, ...)  ***
 =================
  

 NumInt:           Target precision:                 4.0000000000
 -------           Initial precision:                4.0000000000
                   Min. precision (optimization):    4.0000000000

 Neglect Functions:          Basis functions:        0.1000000000E-05
 ------------------          Fit functions:          0.1000000000E-05



 ===========================
 L I N E A R   S C A L I N G
 ===========================
  

 Cut-off radii density fit:                        0.1000000000E-07
 Overlap cut-off criterion AO matrix elements:     0.1000000000E-05
 Cut-offs for Coulomb potential and fitted density:0.1000000000E-07
 Cut-off criterion for Coulomb multipole terms:    0.1000000000E-07
 Progressive Convergence parameter:                 0.000000000    
 ***************************************************************************************************



                                            ***************************
                                            *  C O M P U T A T I O N  *
                                            ***************************
  

 Number of elements of the density matrix on this node (used, total):     63546     63546



 ===========================================
 Numerical Integration : Fuzzy Cells (Becke)
 ===========================================
  
 Becke grid quality: NORMAL         
  
 Lebedev angular grid order:             min:  11 max:  23
 Nr. of radial points:                   min:  46 max:  67

 Total nr. of points:     111980
 Nr. of blocks:              875
 Block length:               128
 Nr. of dummy points:         20


 Test of Precision of the Numerical Integration Grid
 ===================================================

 Integral of the Total Core Density:                   0.00000000000000



 ========================
 Density Fitting (zlmFit)
 ========================
  
 ZlmFit Fit Quality: NORMAL         
  
 Max L-expansion:                        min:   6 max:   7
 Nr. of radial interpolation points:     min:  39 max:  60



 =====
 S C F  ***  ScaSCF  ***
 =====
  
 Initial density matrix is calculated as sum of fragments

 CYCLE    1
 SCF Error: norm([F,P])=      6.608004160929, max([F,P])=      1.429955868124
 orbitals (Q,E):
 ---------------
 A :26...45          ( 2.00    -0.5108)  ( 2.00    -0.5057)  ( 2.00    -0.4918)  ( 2.00    -0.4870)
                     ( 2.00    -0.4678)  ( 2.00    -0.4512)  ( 2.00    -0.4176)  ( 2.00    -0.3631)
                     ( 2.00    -0.3222)  ( 2.00    -0.3207)  ( 0.00    -0.2291)  ( 0.00    -0.1586)
                     ( 0.00    -0.0985)  ( 0.00    -0.0714)  ( 0.00    -0.0468)  ( 0.00    -0.0402)
                     ( 0.00    -0.0308)  ( 0.00    -0.0291)  ( 0.00    -0.0216)  ( 0.00    -0.0095)

 CYCLE    2
   MIX coefficients:  0.8000  0.2000
 SCF Error: norm([F,P])=      1.344300791674, max([F,P])=      0.229722233029
 orbitals (Q,E):
 ---------------
 A :26...36          ( 2.00    -0.4486)  ( 2.00    -0.4319)  ( 2.00    -0.4312)  ( 2.00    -0.4186)
                     ( 2.00    -0.4173)  ( 2.00    -0.3934)  ( 2.00    -0.3541)  ( 2.00    -0.3359)
                     ( 2.00    -0.3144)  ( 2.00    -0.3106)  ( 0.00    -0.2088)

 CYCLE    3
  SDIIS (wt  0.000): -0.5810  1.5810
 A-DIIS (wt  1.000):  0.0000  1.0000
  DIIS coefficients:  0.0000  1.0000
 SCF Error: norm([F,P])=      0.644021072661, max([F,P])=      0.112217504165
 orbitals (Q,E):
 ---------------
 A :26...36          ( 2.00    -0.2889)  ( 2.00    -0.2833)  ( 2.00    -0.2731)  ( 2.00    -0.2670)
                     ( 2.00    -0.2541)  ( 2.00    -0.2326)  ( 2.00    -0.2241)  ( 2.00    -0.2199)
                     ( 2.00    -0.2096)  ( 2.00    -0.1885)  ( 0.00    -0.1207)

 CYCLE    4
  SDIIS (wt  0.000):  0.0778  0.5040  0.4182
 A-DIIS (wt  1.000): -0.0000  0.6754  0.3246
  DIIS coefficients: -0.0000  0.6754  0.3246
 SCF Error: norm([F,P])=      0.999502999175, max([F,P])=      0.196405474502
 orbitals (Q,E):
 ---------------
 A :26...36          ( 2.00    -0.3466)  ( 2.00    -0.3335)  ( 2.00    -0.3239)  ( 2.00    -0.3185)
                     ( 2.00    -0.3115)  ( 2.00    -0.2998)  ( 2.00    -0.2713)  ( 2.00    -0.2571)
                     ( 2.00    -0.2365)  ( 2.00    -0.2299)  ( 0.00    -0.1432)

 CYCLE    5
  SDIIS (wt  0.643): -0.0410  0.3650  0.1134  0.5625
 A-DIIS (wt  0.357):  0.0000  0.0000  0.0000  1.0000
  DIIS coefficients: -0.0263  0.2348  0.0730  0.7186
 SCF Error: norm([F,P])=      0.179965682527, max([F,P])=      0.036314476611
 orbitals (Q,E):
 ---------------
 A :26...36          ( 2.00    -0.3679)  ( 2.00    -0.3527)  ( 2.00    -0.3420)  ( 2.00    -0.3375)
                     ( 2.00    -0.3309)  ( 2.00    -0.3200)  ( 2.00    -0.2914)  ( 2.00    -0.2726)
                     ( 2.00    -0.2689)  ( 2.00    -0.2626)  ( 0.00    -0.1603)

 CYCLE    6
  SDIIS (wt  0.643):  0.0005  0.1368  0.0432  0.4982  0.3214
 A-DIIS (wt  0.357):  0.0000  0.0000  0.0000  0.5178  0.4822
  DIIS coefficients:  0.0003  0.0880  0.0278  0.5052  0.3787
 SCF Error: norm([F,P])=      0.179519293341, max([F,P])=      0.065612224087
 orbitals (Q,E):
 ---------------
 A :26...36          ( 2.00    -0.3650)  ( 2.00    -0.3514)  ( 2.00    -0.3436)  ( 2.00    -0.3355)
                     ( 2.00    -0.3287)  ( 2.00    -0.3208)  ( 2.00    -0.2851)  ( 2.00    -0.2703)
                     ( 2.00    -0.2532)  ( 2.00    -0.2472)  ( 0.00    -0.1590)

 CYCLE    7
  SDIIS (wt  0.689):  0.0040  0.0486  0.0189  0.3080  0.2926  0.3278
 A-DIIS (wt  0.311):  0.0000  0.0000  0.0000  0.0000  0.1707  0.8293
  DIIS coefficients:  0.0028  0.0335  0.0130  0.2122  0.2547  0.4838
 SCF Error: norm([F,P])=      0.069263970077, max([F,P])=      0.031800529193
 orbitals (Q,E):
 ---------------
 A :26...36          ( 2.00    -0.3593)  ( 2.00    -0.3455)  ( 2.00    -0.3368)  ( 2.00    -0.3305)
                     ( 2.00    -0.3237)  ( 2.00    -0.3130)  ( 2.00    -0.2816)  ( 2.00    -0.2671)
                     ( 2.00    -0.2559)  ( 2.00    -0.2494)  ( 0.00    -0.1536)

 CYCLE    8
  SDIIS (wt  0.835): -0.0052  0.0233  0.0028  0.1307  0.1414  0.3653  0.3417
 A-DIIS (wt  0.165):  0.0000  0.0000  0.0000  0.0000  0.0000  0.3274  0.6726
  DIIS coefficients: -0.0043  0.0195  0.0023  0.1092  0.1181  0.3590  0.3962
 SCF Error: norm([F,P])=      0.042761134314, max([F,P])=      0.017290263235
 orbitals (Q,E):
 ---------------
 A :26...36          ( 2.00    -0.3616)  ( 2.00    -0.3480)  ( 2.00    -0.3384)  ( 2.00    -0.3326)
                     ( 2.00    -0.3262)  ( 2.00    -0.3155)  ( 2.00    -0.2824)  ( 2.00    -0.2675)
                     ( 2.00    -0.2548)  ( 2.00    -0.2484)  ( 0.00    -0.1555)

 CYCLE    9
  SDIIS (wt  0.983):  0.0005  0.0030  0.0010  0.0351  0.0421  0.1783  0.2534  0.4868
 A-DIIS (wt  0.017):  0.0000  0.0000  0.0000  0.0000  0.0000  0.0000  0.0000  1.0000
  DIIS coefficients:  0.0004  0.0029  0.0010  0.0345  0.0414  0.1753  0.2492  0.4953
 SCF Error: norm([F,P])=      0.007824510728, max([F,P])=      0.002639991456
 orbitals (Q,E):
 ---------------
 A :26...36          ( 2.00    -0.3615)  ( 2.00    -0.3479)  ( 2.00    -0.3389)  ( 2.00    -0.3325)
                     ( 2.00    -0.3259)  ( 2.00    -0.3157)  ( 2.00    -0.2826)  ( 2.00    -0.2678)
                     ( 2.00    -0.2549)  ( 2.00    -0.2486)  ( 0.00    -0.1555)

 CYCLE   10
  SDIIS (wt  1.000): -0.0005  0.0011 -0.0002  0.0062  0.0075  0.0494  0.0843  0.2342  0.6180
  DIIS coefficients: -0.0005  0.0011 -0.0002  0.0062  0.0075  0.0494  0.0843  0.2342  0.6180
 SCF Error: norm([F,P])=      0.001262019786, max([F,P])=      0.000464578456
 orbitals (Q,E):
 ---------------
 A :26...36          ( 2.00    -0.3615)  ( 2.00    -0.3479)  ( 2.00    -0.3388)  ( 2.00    -0.3325)
                     ( 2.00    -0.3259)  ( 2.00    -0.3157)  ( 2.00    -0.2825)  ( 2.00    -0.2678)
                     ( 2.00    -0.2549)  ( 2.00    -0.2486)  ( 0.00    -0.1555)

 CYCLE   11
  SDIIS (wt  1.000): -0.0000  0.0000 -0.0000  0.0001  0.0005  0.0087  0.0200  0.0772  0.2856  0.6080
  DIIS coefficients: -0.0000  0.0000 -0.0000  0.0001  0.0005  0.0087  0.0200  0.0772  0.2856  0.6080
 SCF Error: norm([F,P])=      0.000267608209, max([F,P])=      0.000060620383
 orbitals (Q,E):
 ---------------
 A :26...36          ( 2.00    -0.3615)  ( 2.00    -0.3479)  ( 2.00    -0.3388)  ( 2.00    -0.3325)
                     ( 2.00    -0.3259)  ( 2.00    -0.3157)  ( 2.00    -0.2825)  ( 2.00    -0.2678)
                     ( 2.00    -0.2549)  ( 2.00    -0.2486)  ( 0.00    -0.1555)

 CYCLE   12
  SDIIS (wt  1.000): -0.0000 -0.0000 -0.0001  0.0001  0.0027  0.0077  0.0320  0.1331  0.3324  0.4921
  DIIS coefficients: -0.0000 -0.0000 -0.0001  0.0001  0.0027  0.0077  0.0320  0.1331  0.3324  0.4921
 SCF Error: norm([F,P])=      0.000083677902, max([F,P])=      0.000026445545
 orbitals (Q,E):
 ---------------
 A :26...36          ( 2.00    -0.3615)  ( 2.00    -0.3479)  ( 2.00    -0.3388)  ( 2.00    -0.3325)
                     ( 2.00    -0.3259)  ( 2.00    -0.3157)  ( 2.00    -0.2825)  ( 2.00    -0.2678)
                     ( 2.00    -0.2549)  ( 2.00    -0.2486)  ( 0.00    -0.1555)

 CYCLE   13
  SDIIS (wt  1.000): -0.0000 -0.0001  0.0000  0.0002  0.0014  0.0066  0.0331  0.1033  0.2506  0.6048
  DIIS coefficients: -0.0000 -0.0001  0.0000  0.0002  0.0014  0.0066  0.0331  0.1033  0.2506  0.6048
 SCF Error: norm([F,P])=      0.000023808317, max([F,P])=      0.000008252472
 orbitals (Q,E):
 ---------------
 A :26...36          ( 2.00    -0.3615)  ( 2.00    -0.3479)  ( 2.00    -0.3388)  ( 2.00    -0.3325)
                     ( 2.00    -0.3259)  ( 2.00    -0.3157)  ( 2.00    -0.2825)  ( 2.00    -0.2678)
                     ( 2.00    -0.2549)  ( 2.00    -0.2486)  ( 0.00    -0.1555)

 CYCLE   14
  SDIIS (wt  1.000): -0.0000  0.0000  0.0000  0.0005  0.0023  0.0128  0.0375  0.1144  0.3475  0.4850
  DIIS coefficients: -0.0000  0.0000  0.0000  0.0005  0.0023  0.0128  0.0375  0.1144  0.3475  0.4850
 SCF Error: norm([F,P])=      0.000007195852, max([F,P])=      0.000002675088
 orbitals (Q,E):
 ---------------
 A :26...36          ( 2.00    -0.3615)  ( 2.00    -0.3479)  ( 2.00    -0.3388)  ( 2.00    -0.3325)
                     ( 2.00    -0.3259)  ( 2.00    -0.3157)  ( 2.00    -0.2825)  ( 2.00    -0.2678)
                     ( 2.00    -0.2549)  ( 2.00    -0.2486)  ( 0.00    -0.1555)

 CYCLE   15
  SDIIS (wt  1.000):  0.0000  0.0000  0.0001  0.0003  0.0023  0.0066  0.0306  0.1089  0.2954  0.5557
  DIIS coefficients:  0.0000  0.0000  0.0001  0.0003  0.0023  0.0066  0.0306  0.1089  0.2954  0.5557
 SCF Error: norm([F,P])=      0.000002426384, max([F,P])=      0.000000539732
 orbitals (Q,E):
 ---------------
 A :26...36          ( 2.00    -0.3615)  ( 2.00    -0.3479)  ( 2.00    -0.3388)  ( 2.00    -0.3325)
                     ( 2.00    -0.3259)  ( 2.00    -0.3157)  ( 2.00    -0.2825)  ( 2.00    -0.2678)
                     ( 2.00    -0.2549)  ( 2.00    -0.2486)  ( 0.00    -0.1555)

 SCF CONVERGED

 CYCLE   16
 ***************************************************************************************************



                                                *******************
                                                *  R E S U L T S  *
                                                *******************
  
 *** Using FIT density in Focky
  SDIIS (wt  1.000): -0.0000 -0.0000 -0.0000  0.0002  0.0003  0.0060  0.0247  0.1102  0.2921  0.5664
  DIIS coefficients: -0.0000 -0.0000 -0.0000  0.0002  0.0003  0.0060  0.0247  0.1102  0.2921  0.5664
 SCF Error: norm([F,P])=      0.000000673039, max([F,P])=      0.000000125831

 Scaled ZORA Orbital Energies, per Irrep and Spin:
 =================================================
[...]
                                    8.40%     1 S              -6.532  1.00     8 H
                                    6.82%     1 S              -6.532  1.00    14 H
                                   -6.30%     2 P:y             4.589  0.00     4 C
                                   -4.74%     2 P:y             4.589  0.00     2 C
                                   -4.60%     2 P:y             4.589  0.00     1 C
                                   -2.49%     3 S              10.158  0.00     5 C
                                   -2.42%     2 P:x             4.589  0.00     2 C
                                   -2.39%     3 S              10.158  0.00     4 C
                                   -1.92%     2 P:x             7.649  0.00    16 N
                                   -1.69%     2 P:y             4.589  0.00     5 C
                                   -1.57%     2 P:x             7.649  0.00    17 N
                                    1.51%     1 P:x            -5.239  0.67     2 C
                                   -1.38%     2 P:x             4.589  0.00     3 C
                                    1.15%     2 S               2.394  0.00     8 H
                                    1.09%     2 P:x             4.589  0.00     1 C
       0.108  0.00    40 A         33.08%     1 S              -6.532  1.00     7 H
                                   22.86%     2 S               2.394  0.00     7 H
                                   10.76%     2 S               2.394  0.00     9 H
                                   10.75%     1 P:x            -5.239  0.67     3 C
                                    7.87%     2 S               2.394  0.00    13 H
                                    7.63%     2 S               2.394  0.00    14 H
                                    7.03%     1 P:x            -7.062  1.00    16 N
                                   -6.72%     2 P:y             4.589  0.00     1 C
                                    6.48%     1 S              -6.532  1.00     9 H
                                    4.64%     2 S               2.394  0.00    11 H
                                   -4.38%     2 P:x             4.589  0.00     4 C
                                    4.09%     1 S              -6.532  1.00    13 H
                                    3.71%     1 S              -6.532  1.00    14 H
                                   -3.08%     2 P:y             4.589  0.00     2 C
                                   -3.00%     2 P:x             7.649  0.00    17 N
                                   -2.94%     2 P:y             7.649  0.00    17 N
                                   -2.91%     2 P:x             4.589  0.00     2 C
                                    1.87%     1 S              -6.532  1.00     6 H
                                   -1.74%     2 P:x             4.589  0.00     1 C
                                   -1.71%     2 P:x             7.649  0.00    16 N
                                   -1.66%     2 P:x             4.589  0.00     5 C
                                    1.62%     1 S              -6.532  1.00    11 H
                                    1.60%     1 P:z            -5.239  0.67     3 C
                                   -1.23%     3 S              10.158  0.00     5 C
                                    1.20%     1 P:y            -7.062  1.00    17 N
                                    1.13%     1 P:y            11.051  0.00     7 H
                                   -1.12%     2 P:z             4.589  0.00     3 C
                                    1.12%     1 P:z            -7.062  1.00    16 N
                                    1.09%     2 P:y             4.589  0.00     3 C
                                    1.04%     1 P:x            -5.239  0.67     1 C
                                   -1.02%     1 P:y            -5.239  0.67     1 C
                                   -1.01%     2 P:z             7.649  0.00    17 N
       0.470  0.00    41 A         18.39%     2 S               2.394  0.00    12 H
                                   14.34%     2 S               2.394  0.00    10 H
                                   11.78%     2 S               2.394  0.00    14 H
                                  -11.19%     2 P:z             4.589  0.00     2 C
                                   10.66%     2 S               2.394  0.00    13 H
                                   -9.92%     2 P:z             4.589  0.00     5 C
                                    8.82%     1 S              -6.532  1.00    14 H
                                    7.60%     1 S              -6.532  1.00    12 H
                                    7.33%     2 P:z             4.589  0.00     1 C
                                    6.78%     2 S               2.394  0.00     9 H
                                    6.75%     1 S              -6.532  1.00    13 H
                                    6.55%     1 S              -6.532  1.00     9 H
                                    5.44%     1 S              -6.532  1.00    10 H
                                    4.33%     1 S              -6.532  1.00     7 H
                                   -4.00%     1 P:z            -5.239  0.67     2 C
                                    3.68%     2 S               2.394  0.00     7 H
                                    3.56%     2 S               2.394  0.00    11 H
                                   -2.82%     3 S              10.158  0.00     4 C
                                   -2.81%     2 P:y             7.649  0.00    17 N
                                   -2.45%     3 S              14.073  0.00    16 N
                                   -2.12%     2 P:z             4.589  0.00     4 C
                                    2.02%     1 S              -6.532  1.00    11 H
                                    1.90%     2 P:z             4.589  0.00     3 C
                                    1.90%     1 P:x            -5.239  0.67     3 C
                                   -1.67%     3 S              10.158  0.00     5 C
                                   -1.59%     2 P:x             7.649  0.00    17 N
                                    1.47%     2 P:y             4.589  0.00     1 C
                                    1.40%     2 S             -13.620  2.00     4 C
                                    1.36%     1 S              -6.532  1.00     8 H
                                    1.05%     1 P:x            -7.062  1.00    16 N
                                    1.01%     1 P:z            -5.239  0.67     1 C
       0.692  0.00    42 A         15.70%     2 S               2.394  0.00    13 H
                                   15.07%     1 S              -6.532  1.00    13 H
                                   13.88%     2 S               2.394  0.00     6 H
                                   13.85%     1 S              -6.532  1.00     6 H
                                   12.97%     1 S              -6.532  1.00     9 H
                                   12.79%     2 S               2.394  0.00     9 H
                                   11.93%     1 P:x            -5.239  0.67     3 C
                                   -9.62%     2 P:x             4.589  0.00     2 C
                                   -9.35%     2 P:x             4.589  0.00     4 C
                                    8.02%     1 P:x            -7.062  1.00    16 N
                                   -7.56%     2 P:x             4.589  0.00     5 C
                                    7.05%     2 S               2.394  0.00    11 H
                                    6.96%     1 P:x            -5.239  0.67     1 C
                                   -5.11%     2 P:y             4.589  0.00     5 C
                                    4.96%     1 S              -6.532  1.00    11 H
                                   -4.24%     2 P:x             4.589  0.00     3 C
                                    3.60%     1 S              -6.532  1.00    14 H
                                   -2.65%     2 P:y             4.589  0.00     4 C
                                    2.42%     2 S               2.394  0.00    10 H
                                    1.86%     2 S               2.394  0.00    14 H
                                    1.77%     1 S              -6.532  1.00    10 H
                                    1.25%     1 P:y            -5.239  0.67     5 C
                                    1.11%     3 S              40.869  0.00     9 H
                                    1.10%     2 P:x             4.589  0.00     1 C
                                   -1.03%     1 P:x            -5.239  0.67     2 C



 =======================================================================
 Electrostatic potential at the Nuclei due to electrons and other nuclei
 =======================================================================
  
         Atom                  Potential
         ----                  ---------
     1)   C                  14.63186569
     2)   H                   1.09186996
     3)   Cl                 64.89195506
     4)   C                  14.74449705
     5)   C                  14.73816712
     6)   N                  18.41441855
     7)   N                  18.37557040
     8)   H                   1.00296534
     9)   H                   0.99499256
    10)   C                  14.77579696
    11)   H                   1.10032895
    12)   H                   1.10364307
    13)   H                   1.09595444
    14)   C                  14.78099402
    15)   H                   1.10705099
    16)   H                   1.10447716
    17)   H                   1.10266305
 Mulliken charges used for AMS results%charges...


    =====================
     CALCULATION RESULTS
    =====================

Energy (hartree)            -3.36336179


--------------
Atomic charges
--------------
  Index   Atom    Charge
      1      C    0.2070
      2      H   -0.1109
      3     Cl   -0.2672
      4      C    0.1984
      5      C    0.1278
      6      N   -0.2216
      7      N    0.0212
      8      H   -0.0233
      9      H   -0.0457
     10      C    0.6866
     11      H   -0.2303
     12      H   -0.1971
     13      H   -0.2148
     14      C    0.7074
     15      H   -0.1993
     16      H   -0.2040
     17      H   -0.2343


Dipole moment vector    (Debye):    -2.59862957    1.77757057    3.12079122
              magnitude (Debye):     4.43305432


-----------------------
Molecular orbitals info
-----------------------
n orbitals:              315
n spin:                    1

Note: only printing virtual orbitals with
      energy smaller than HOMO + 100. eV

HOMO (eV):              -6.7639
LUMO (eV):              -4.2319
HOMO-LUMO gap (eV):      2.5320

   Index   Energy (eV)    Occupation
     204       93.0687         0.000       
     203       91.8040         0.000       
     202       90.4252         0.000       
     201       88.5115         0.000       
     200       88.4002         0.000       
     199       86.9465         0.000       
     198       85.9401         0.000       
     197       85.0071         0.000       
     196       83.8742         0.000       
     195       82.9577         0.000       
     194       82.6677         0.000       
     193       82.2637         0.000       
     192       81.1625         0.000       
     191       81.0656         0.000       
     190       80.6834         0.000       
     189       79.7226         0.000       
     188       79.2612         0.000       
     187       78.4087         0.000       
     186       78.0732         0.000       
     185       77.8083         0.000       
     184       76.9728         0.000       
     183       76.4929         0.000       
     182       76.0709         0.000       
     181       74.2253         0.000       
     180       74.0622         0.000       
     179       73.0158         0.000       
     178       72.5594         0.000       
     177       71.7777         0.000       
     176       70.0419         0.000       
     175       69.6203         0.000       
     174       68.4153         0.000       
     173       68.0490         0.000       
     172       67.0538         0.000       
     171       66.4131         0.000       
     170       65.4800         0.000       
     169       65.1300         0.000       
     168       64.1633         0.000       
     167       63.8333         0.000       
     166       63.4596         0.000       
     165       62.4788         0.000       
     164       62.4133         0.000       
     163       61.3866         0.000       
     162       60.8239         0.000       
     161       59.8946         0.000       
     160       59.4926         0.000       
     159       58.5653         0.000       
     158       57.7945         0.000       
     157       56.4810         0.000       
     156       55.6584         0.000       
     155       54.7821         0.000       
     154       54.2027         0.000       
     153       53.6020         0.000       
     152       53.1113         0.000       
     151       51.9796         0.000       
     150       50.5276         0.000       
     149       50.3556         0.000       
     148       49.5622         0.000       
     147       48.9832         0.000       
     146       48.3210         0.000       
     145       48.2042         0.000       
     144       47.2676         0.000       
     143       46.2891         0.000       
     142       45.8102         0.000       
     141       45.1397         0.000       
     140       44.3025         0.000       
     139       43.5843         0.000       
     138       42.5966         0.000       
     137       41.9344         0.000       
     136       41.6627         0.000       
     135       41.3618         0.000       
     134       40.1927         0.000       
     133       39.2877         0.000       
     132       39.1179         0.000       
     131       38.3286         0.000       
     130       38.1893         0.000       
     129       37.5827         0.000       
     128       36.8816         0.000       
     127       36.6595         0.000       
     126       36.4674         0.000       
     125       36.1313         0.000       
     124       35.7793         0.000       
     123       35.3107         0.000       
     122       35.0643         0.000       
     121       34.3533         0.000       
     120       33.9292         0.000       
     119       33.6451         0.000       
     118       33.2673         0.000       
     117       33.1440         0.000       
     116       32.7021         0.000       
     115       31.8198         0.000       
     114       31.5981         0.000       
     113       31.0460         0.000       
     112       30.8014         0.000       
     111       30.4640         0.000       
     110       30.1940         0.000       
     109       29.3839         0.000       
     108       28.7694         0.000       
     107       28.5302         0.000       
     106       28.1529         0.000       
     105       27.6468         0.000       
     104       27.1902         0.000       
     103       26.7267         0.000       
     102       25.9774         0.000       
     101       25.1757         0.000       
     100       24.7375         0.000       
      99       24.5218         0.000       
      98       23.4595         0.000       
      97       22.6448         0.000       
      96       21.5486         0.000       
      95       21.1876         0.000       
      94       20.4472         0.000       
      93       20.1405         0.000       
      92       18.7313         0.000       
      91       18.5116         0.000       
      90       18.0055         0.000       
      89       17.2313         0.000       
      88       15.9206         0.000       
      87       15.6000         0.000       
      86       14.4515         0.000       
      85       14.1911         0.000       
      84       13.7914         0.000       
      83       13.1239         0.000       
      82       12.6682         0.000       
      81       12.6341         0.000       
      80       12.4700         0.000       
      79       12.0842         0.000       
      78       11.7389         0.000       
      77       11.3815         0.000       
      76       11.1502         0.000       
      75       10.8474         0.000       
      74       10.5802         0.000       
      73       10.5521         0.000       
      72       10.1434         0.000       
      71       10.0504         0.000       
      70        9.8454         0.000       
      69        9.6482         0.000       
      68        8.9899         0.000       
      67        8.8783         0.000       
      66        8.6308         0.000       
      65        7.8990         0.000       
      64        7.6858         0.000       
      63        7.3557         0.000       
      62        6.9573         0.000       
      61        6.9338         0.000       
      60        6.5914         0.000       
      59        6.2927         0.000       
      58        5.7047         0.000       
      57        5.4471         0.000       
      56        5.2702         0.000       
      55        4.9024         0.000       
      54        4.7456         0.000       
      53        4.3404         0.000       
      52        4.0229         0.000       
      51        3.7649         0.000       
      50        3.5974         0.000       
      49        3.0483         0.000       
      48        2.2965         0.000       
      47        2.1280         0.000       
      46        1.6421         0.000       
      45        1.4849         0.000       
      44        1.2486         0.000       
      43        1.2195         0.000       
      42        0.6917         0.000       
      41        0.4703         0.000       
      40        0.1083         0.000       
      39       -0.2125         0.000       
      38       -0.7456         0.000       
      37       -1.2632         0.000       
      36       -4.2319         0.000 < LUMO
      35       -6.7639         2.000 < HOMO
      34       -6.9371         2.000       
      33       -7.2867         2.000       
      32       -7.6883         2.000       
      31       -8.5899         2.000       
      30       -8.8676         2.000       
      29       -9.0467         2.000       
      28       -9.2189         2.000       
      27       -9.4659         2.000       
      26       -9.8374         2.000       
      25      -10.0408         2.000       
      24      -10.3949         2.000       
      23      -11.6680         2.000       
      22      -12.2872         2.000       
      21      -13.4542         2.000       
      20      -13.8041         2.000       
      19      -15.4104         2.000       
      18      -17.3726         2.000       
      17      -17.9759         2.000       
      16      -19.3957         2.000       
      15      -20.7699         2.000       
      14      -22.7586         2.000       
      13      -24.2127         2.000       
      12     -189.4844         2.000       
      11     -189.4895         2.000       
      10     -189.7467         2.000       
       9     -250.5176         2.000       
       8     -270.1412         2.000       
       7     -270.2807         2.000       
       6     -271.1029         2.000       
       5     -271.7154         2.000       
       4     -274.2842         2.000       
       3     -382.2066         2.000       
       2     -382.7474         2.000       
       1    -2749.7898         2.000       

AMS application finished. Exiting.
NORMAL TERMINATION
     Total cpu time:      67.18
  Total system time:       0.43
 Total elapsed time:      67.81
NORMAL TERMINATION
