
 *******************************************************************************
 *                                                                             *
 *  --------------------------------                                           *
 *   Amsterdam Modeling Suite (AMS)              2026.103                      *
 *  --------------------------------                                           *
 *                                               r260501 2026-05-01 873454b5   *
 *                                                                             *
 *                                                                             *
 *                              =================                              *
 *                              |               |                              *
 *                              |     A M S     |                              *
 *                              |               |                              *
 *                              =================                              *
 *                                                                             *
 *                                                                             *
 *   Online information and documentation:  https://www.scm.com/support/       *
 *   E-mail:  support@scm.com   info@scm.com                                   *
 *                                                                             *
 *   Scientific publications using AMS results must be properly referenced     *
 *   See the User Manuals (or the web site) for recommended citations          *
 *   The terms and conditions of the End User License Agreement apply to       *
 *   the use of AMS, https://www.scm.com/license-terms/                        *
 *                                                                             *
 **********************  x86_64_linux_intel / intelmpi  ************************
 
 Licensed to: Jong-June Jeon / University of Seoul 2026-06-02 13:44:15
 SCM User ID: u30731
  
 AMS 2026.103  RunTime: Jun03-2026 01:47:43  ShM Nodes: 1  Procs: 1

 AMS jobname: c5_fragB_opt
 AMS jobid  : 1518258314

 Start   directory: /gpfs/home1/yeseo1ee/projects/eda-asm-prediction/ADF_800/adf_outputs/batch_002/dipolar_005473/
 Results directory: /gpfs/home1/yeseo1ee/projects/eda-asm-prediction/ADF_800/adf_outputs/batch_002/dipolar_005473/c5_fragB_opt.results/
 Scratch directory: /tmp/amstmp_c5_fragB_opt_kid0.1518258314/

 RNG seed: 1152413557 753939218 -149208864 -569185845 488899762 790208747 204844822 -1079860260



                      ************************************************************************
                      *  ADF 2026.103  RunTime: Jun03-2026 01:47:43  ShM Nodes: 1  Procs: 1  *
                      ************************************************************************
  

       ***************************
       *  GEOMETRY OPTIMIZATION  *
       ***************************

Optimization Method                    Quasi Newton
Optimization Coordinates               Delocalized Coordinates
Optimize lattice                       F
 
 ------------------------------------------------------
 Convergence criteria (Hartree,Angstrom)
 ------------------------------------------------------
 Maximum gradient               0.000100000000
 Maximum rms gradient           0.000066666667
 Maximum step allowed           0.010000000000
 Maximum rms step allowed       0.006666666667
 Maximum energy change allowe   0.000290000000
 Maximum stress energy allowe   0.000500000000
 
Initial model Hessian                  Automatic Hessian
 
------------------------------------
Quasi-Newton Optimizer Parameters
------------------------------------
Hessian Update Method                  BFGS
Maximum number of steps                  200
First GDIIS cycle                          0
Maximum GDIIS vectors                      0
Trust radius (bohr)                        0.200000
Trust radius varies                        T
Constraints converged at all steps         T
Use projector                              T
 
 Rigid motions settings for: old optimizer
 Atomic rotations (x,y,z):     T T T
 Atomic translations (x,y,z):  T T T
 Tolerance:                  1.000000000000000E-006

--------
Geometry
--------
Formula: C9H14N2O4
Atoms
  Index Symbol   x (angstrom)   y (angstrom)   z (angstrom)
      1      C     2.45084000    -3.87175000     0.11356000
      2      N     1.97859000    -2.70513000    -0.60577000
      3      C     2.05759000    -1.47495000    -0.05644000
      4      O     2.75262000    -1.23466000     0.93361000
      5      C     1.39210000    -0.38463000    -0.89692000
      6      C     2.36926000     0.18221000    -1.90614000
      7      N     0.15899000    -0.64257000    -1.45348000
      8      C    -1.04864000    -0.71275000    -0.81488000
      9      C    -2.16457000    -0.29455000    -1.69372000
     10      C    -3.59138000    -0.27521000    -1.22890000
     11      O    -1.88623000     0.09064000    -2.83688000
     12      C    -1.17625000    -1.46320000     0.43863000
     13      O    -0.24256000    -1.99664000     1.01844000
     14      O    -2.42478000    -1.50294000     0.91812000
     15      C    -2.61312000    -2.16697000     2.17384000
     16      H     2.42316000    -4.74235000    -0.55401000
     17      H     1.82540000    -4.08054000     0.99879000
     18      H     3.48456000    -3.71807000     0.45248000
     19      H     1.26147000    -2.84310000    -1.31080000
     20      H     3.33722000     0.39187000    -1.43767000
     21      H     1.98034000     1.11236000    -2.34385000
     22      H     2.53970000    -0.54912000    -2.71293000
     23      H     0.01103000    -0.20669000    -2.37084000
     24      H    -3.94905000    -1.29786000    -1.03988000
     25      H    -3.69247000     0.27637000    -0.28502000
     26      H    -4.20010000     0.19280000    -2.01314000
     27      H    -3.68379000    -2.08651000     2.39514000
     28      H    -2.02454000    -1.67194000     2.95731000
     29      H    -2.31978000    -3.22409000     2.10050000

Total System Charge              0.00000


----------------
ADF Engine Input
----------------
 
   Basis
     Type TZ2P
     Core None
   End
   XC
     GGA BLYP
     Dispersion GRIMME3 BJDAMP
   End
   Symmetry NOSYM
   NumericalQuality Normal
   Unrestricted No
   SCF
     Iterations 200
     Converge 1.0e-6
   End
   Save TAPE21
 

 Title: *** (NO TITLE) ***

 Using automatic Hessian for delocalized coordinates.
 *** GO1_GOStep1 ***

 Energy gradients wrt nuclear displacements
 ==========================================

     Atom      Cartesian (a.u./angstrom)
                 X         Y         Z
 ----------------------------------------
     1 C    -0.007380  0.019480 -0.012438
     2 N     0.013140  0.019108  0.031705
     3 C    -0.009062 -0.043149 -0.056223
     4 O    -0.001633 -0.005645  0.005862
     5 C    -0.017722  0.081666  0.080066
     6 C    -0.002328 -0.016012 -0.003806
     7 N    -0.035313 -0.080863 -0.080866
     8 C     0.061956  0.059850  0.013531
     9 C    -0.019663  0.006414 -0.015539
    10 C     0.017918 -0.001358 -0.004094
    11 O    -0.006355 -0.010522  0.032404
    12 C    -0.027575 -0.021605  0.022300
    13 O    -0.023716  0.012553 -0.014026
    14 O     0.047981 -0.013255  0.003269
    15 C     0.002780  0.011387 -0.019482
    16 H     0.000125 -0.003845 -0.000327
    17 H    -0.002983 -0.003138  0.003575
    18 H     0.005743 -0.001653  0.001930
    19 H    -0.001078  0.003779 -0.002628
    20 H     0.003241  0.000622 -0.001327
    21 H    -0.002789  0.001631  0.001887
    22 H    -0.003298 -0.002836  0.000535
    23 H     0.013180 -0.011296  0.013043
    24 H     0.000052 -0.004536  0.000167
    25 H     0.001946  0.002261  0.002677
    26 H    -0.003085  0.002008 -0.003437
    27 H    -0.004181 -0.000468  0.002333
    28 H     0.000550  0.004199  0.001134
    29 H    -0.000454 -0.004776 -0.002224
 ----------------------------------------
 
----------------------------------------------------------------------
Geometry Convergence after Step   1       (Hartree/Angstrom,Angstrom)
----------------------------------------------------------------------
current energy                               -6.16712581 Hartree
energy change                      -6.16712581     0.00029000    F
constrained gradient max            0.08166163     0.00010000    F
constrained gradient rms            0.02433451     0.00006667    F
gradient max                        0.08166163
gradient rms                        0.02433451
cart. step max                      0.19867394     0.01000000    F
cart. step rms                      0.06925028     0.00666667    F
 

--------
Geometry
--------
Formula: C9H14N2O4
Atoms
  Index Symbol   x (angstrom)   y (angstrom)   z (angstrom)
      1      C     2.56755288    -3.88681227     0.09865611
      2      N     2.03347149    -2.73117606    -0.60557884
      3      C     2.16792537    -1.47757818    -0.08420067
      4      O     2.94732053    -1.21093274     0.83236546
      5      C     1.43989608    -0.40111753    -0.89446854
      6      C     2.34716536     0.16212993    -1.97317152
      7      N     0.15807422    -0.61487118    -1.34352347
      8      C    -1.07612717    -0.71105070    -0.73091830
      9      C    -2.13804953    -0.26694466    -1.66345681
     10      C    -3.59602901    -0.23543424    -1.28093924
     11      O    -1.78983470     0.13622191    -2.79436860
     12      C    -1.24519153    -1.47124034     0.51155753
     13      O    -0.32264646    -2.01178540     1.12397470
     14      O    -2.52587475    -1.51152765     0.95506287
     15      C    -2.74470762    -2.19018029     2.20719709
     16      H     2.47883072    -4.77009651    -0.54438652
     17      H     2.02407394    -4.06973212     1.03936890
     18      H     3.62504848    -3.72534359     0.33869660
     19      H     1.25700729    -2.88468461    -1.23987586
     20      H     3.34512358     0.35920387    -1.56889531
     21      H     1.94182141     1.09809374    -2.38099769
     22      H     2.45880195    -0.56267484    -2.79546340
     23      H    -0.02607945    -0.16131193    -2.25369465
     24      H    -3.97897441    -1.25328589    -1.12894078
     25      H    -3.74998064     0.30267569    -0.33789366
     26      H    -4.14914006     0.25110004    -2.09180491
     27      H    -3.81926540    -2.11249826     2.39972230
     28      H    -2.17737245    -1.70483094     3.01051421
     29      H    -2.44723011    -3.24428524     2.13461302

Total System Charge              0.00000

 *** GO1_GOStep2 ***

 Energy gradients wrt nuclear displacements
 ==========================================

     Atom      Cartesian (a.u./angstrom)
                 X         Y         Z
 ----------------------------------------
     1 C    -0.005385  0.013557 -0.008817
     2 N     0.012035  0.003121  0.012491
     3 C    -0.003016 -0.028748 -0.037046
     4 O     0.002252 -0.001857  0.004761
     5 C     0.009549  0.080983  0.067245
     6 C    -0.001605 -0.016064 -0.005040
     7 N    -0.035348 -0.068762 -0.066127
     8 C     0.029700  0.048457  0.015760
     9 C    -0.013930 -0.002128 -0.001627
    10 C     0.008586 -0.000570 -0.001396
    11 O     0.001816 -0.002312  0.006893
    12 C    -0.031851 -0.008916  0.003894
    13 O    -0.004635 -0.000778  0.003570
    14 O     0.024391 -0.010075  0.007000
    15 C     0.001553  0.007800 -0.012723
    16 H     0.000055 -0.002658  0.000019
    17 H    -0.001654 -0.001808  0.002515
    18 H     0.003209 -0.001416  0.000957
    19 H     0.000488  0.001608 -0.002441
    20 H     0.001790 -0.000092 -0.001645
    21 H    -0.001679  0.001412  0.001256
    22 H    -0.001813 -0.001356 -0.000659
    23 H     0.010535 -0.008972  0.010016
    24 H    -0.000441 -0.001754 -0.000221
    25 H     0.000179  0.001352  0.001158
    26 H    -0.001684  0.001369 -0.002029
    27 H    -0.002335 -0.000716  0.001977
    28 H    -0.000054  0.002275  0.001130
    29 H    -0.000705 -0.002953 -0.000873
 ----------------------------------------

 dE(predicted):    -0.11954E-01, dE(actual):    -0.10596E-01, Trust radius:    0.400000, all in a.u.
 
----------------------------------------------------------------------
Geometry Convergence after Step   2       (Hartree/Angstrom,Angstrom)
----------------------------------------------------------------------
current energy                               -6.17772201 Hartree
energy change                      -0.01059620     0.00029000    F
constrained gradient max            0.08098782     0.00010000    F
constrained gradient rms            0.01886650     0.00006667    F
gradient max                        0.08098782
gradient rms                        0.01886650
cart. step max                      0.21157731     0.01000000    F
cart. step rms                      0.07461086     0.00666667    F
 

--------
Geometry
--------
Formula: C9H14N2O4
Atoms
  Index Symbol   x (angstrom)   y (angstrom)   z (angstrom)
      1      C     2.44819802    -3.86819934     0.24393162
      2      N     1.94613004    -2.73602176    -0.53053951
      3      C     2.15940159    -1.44917297    -0.09777643
      4      O     2.96392209    -1.15148684     0.78404382
      5      C     1.45836237    -0.39811053    -0.96253486
      6      C     2.36542942     0.16203731    -2.04650991
      7      N     0.16482479    -0.55395860    -1.35433005
      8      C    -1.08001682    -0.68967777    -0.76140095
      9      C    -2.14243012    -0.20330287    -1.67148054
     10      C    -3.60281401    -0.19907055    -1.27705568
     11      O    -1.80704515     0.25875311    -2.79014526
     12      C    -1.20120021    -1.49570797     0.45118331
     13      O    -0.24189266    -2.03594208     1.01205770
     14      O    -2.48188442    -1.57775317     0.93129899
     15      C    -2.63536114    -2.31541038     2.16834660
     16      H     2.29774740    -4.78660162    -0.33280921
     17      H     1.92757782    -3.95436967     1.20863705
     18      H     3.51693154    -3.73772644     0.43955018
     19      H     1.14369945    -2.89656009    -1.12881968
     20      H     3.36337012     0.34725235    -1.63861442
     21      H     1.97236826     1.10303834    -2.45264461
     22      H     2.47335108    -0.55802993    -2.87258093
     23      H    -0.04116498    -0.07369752    -2.25571818
     24      H    -3.97935145    -1.22385461    -1.17190892
     25      H    -3.75472974     0.28997747    -0.30852398
     26      H    -4.16265095     0.32233248    -2.05849235
     27      H    -3.70221254    -2.27144395     2.40060116
     28      H    -2.04881738    -1.85165028     2.96909284
     29      H    -2.31413244    -3.35561212     2.04229220

Total System Charge              0.00000

 *** GO1_GOStep3 ***

 Energy gradients wrt nuclear displacements
 ==========================================

     Atom      Cartesian (a.u./angstrom)
                 X         Y         Z
 ----------------------------------------
     1 C    -0.001579  0.005024 -0.003782
     2 N    -0.003872 -0.004641  0.007307
     3 C     0.004768 -0.013572 -0.018081
     4 O    -0.001136 -0.001908  0.002322
     5 C     0.012819  0.074792  0.054954
     6 C    -0.000376 -0.012677 -0.009464
     7 N    -0.024782 -0.066794 -0.032306
     8 C     0.015260  0.042216  0.010333
     9 C    -0.011835 -0.005462  0.003837
    10 C     0.002463  0.000857 -0.001261
    11 O    -0.000007  0.004071 -0.008517
    12 C    -0.016943 -0.008535 -0.002407
    13 O     0.014761 -0.005818 -0.000820
    14 O     0.006681 -0.004152  0.003907
    15 C     0.000561  0.004243 -0.006637
    16 H    -0.000069 -0.001260  0.000369
    17 H     0.000127 -0.001299  0.001257
    18 H     0.000714 -0.000978  0.000430
    19 H     0.000394  0.000296 -0.003373
    20 H     0.000724 -0.000487 -0.001641
    21 H    -0.000261  0.001063  0.000607
    22 H    -0.000430  0.000215 -0.001415
    23 H     0.005116 -0.005588  0.002974
    24 H    -0.000301  0.000186 -0.000254
    25 H    -0.000519  0.000378  0.000006
    26 H    -0.000671  0.000653 -0.000493
    27 H    -0.000696 -0.000519  0.001141
    28 H    -0.000380  0.000533  0.000930
    29 H    -0.000528 -0.000836  0.000080
 ----------------------------------------

 dE(predicted):    -0.12539E-01, dE(actual):    -0.81381E-02, Trust radius:    0.400000, all in a.u.
 
----------------------------------------------------------------------
Geometry Convergence after Step   3       (Hartree/Angstrom,Angstrom)
----------------------------------------------------------------------
current energy                               -6.18586009 Hartree
energy change                      -0.00813808     0.00029000    F
constrained gradient max            0.07479679     0.00010000    F
constrained gradient rms            0.01481039     0.00006667    F
gradient max                        0.07479679
gradient rms                        0.01481039
cart. step max                      0.14239898     0.01000000    F
cart. step rms                      0.04791141     0.00666667    F
 

--------
Geometry
--------
Formula: C9H14N2O4
Atoms
  Index Symbol   x (angstrom)   y (angstrom)   z (angstrom)
      1      C     2.56647414    -3.90759058     0.22295204
      2      N     2.00234498    -2.80038773    -0.55596018
      3      C     2.17619624    -1.49956183    -0.13267133
      4      O     2.99126718    -1.15881600     0.72031680
      5      C     1.44730644    -0.47900337    -1.00371907
      6      C     2.34284900     0.17063049    -2.04562241
      7      N     0.15650828    -0.55835214    -1.32287101
      8      C    -1.10180847    -0.71445123    -0.75054806
      9      C    -2.13493296    -0.20328212    -1.66832993
     10      C    -3.60011011    -0.19242886    -1.27633434
     11      O    -1.78450046     0.26170149    -2.77865741
     12      C    -1.24708432    -1.48985651     0.46930062
     13      O    -0.31373584    -2.01007776     1.07654216
     14      O    -2.55355612    -1.54957904     0.91795240
     15      C    -2.72180908    -2.26459668     2.17628081
     16      H     2.43764468    -4.83443924    -0.34264096
     17      H     2.06997679    -3.99699084     1.19743939
     18      H     3.63116430    -3.72846631     0.38968576
     19      H     1.19054795    -2.99852638    -1.12756217
     20      H     3.33111078     0.34718386    -1.61232941
     21      H     1.93653557     1.12714102    -2.39563557
     22      H     2.47293117    -0.49225888    -2.91382899
     23      H    -0.07480047    -0.03494565    -2.20585751
     24      H    -3.98242827    -1.21527022    -1.18135444
     25      H    -3.74837562     0.28588361    -0.30280788
     26      H    -4.15377849     0.33987268    -2.05198566
     27      H    -3.79051420    -2.21360954     2.38947790
     28      H    -2.14335650    -1.78528678     2.97207488
     29      H    -2.39645660    -3.30460546     2.07584358

Total System Charge              0.00000

 *** GO1_GOStep4 ***

 Energy gradients wrt nuclear displacements
 ==========================================

     Atom      Cartesian (a.u./angstrom)
                 X         Y         Z
 ----------------------------------------
     1 C     0.001352  0.000203  0.000083
     2 N    -0.002309 -0.008517 -0.004671
     3 C     0.007888 -0.007329 -0.004075
     4 O    -0.003233 -0.001213 -0.003864
     5 C    -0.003185  0.056875  0.036087
     6 C    -0.000283 -0.007202 -0.011049
     7 N    -0.000483 -0.060012 -0.007834
     8 C     0.003447  0.035338  0.009330
     9 C    -0.000492 -0.000368 -0.006554
    10 C    -0.000448 -0.000416  0.002311
    11 O    -0.002336 -0.000127 -0.002706
    12 C     0.002864 -0.013899 -0.000749
    13 O    -0.003404  0.003531 -0.001970
    14 O    -0.004914  0.003816 -0.003757
    15 C     0.000664 -0.000690  0.000606
    16 H    -0.000122  0.000273  0.000359
    17 H     0.000515  0.000060 -0.000658
    18 H    -0.001160 -0.000541 -0.000278
    19 H     0.003377 -0.000179 -0.001167
    20 H    -0.000237 -0.000818 -0.000722
    21 H     0.001325  0.000720  0.000083
    22 H    -0.000249  0.001194 -0.000553
    23 H     0.000510 -0.000342 -0.000755
    24 H    -0.000102  0.000464  0.000209
    25 H    -0.000326 -0.000288  0.000262
    26 H     0.000778 -0.000553  0.001379
    27 H     0.001073 -0.000118 -0.000009
    28 H    -0.000295 -0.000694  0.000062
    29 H    -0.000219  0.000831  0.000604
 ----------------------------------------

 dE(predicted):    -0.89579E-02, dE(actual):    -0.79417E-02, Trust radius:    0.800000, all in a.u.
 
----------------------------------------------------------------------
Geometry Convergence after Step   4       (Hartree/Angstrom,Angstrom)
----------------------------------------------------------------------
current energy                               -6.19380183 Hartree
energy change                      -0.00794173     0.00029000    F
constrained gradient max            0.06002228     0.00010000    F
constrained gradient rms            0.01091584     0.00006667    F
gradient max                        0.06002228
gradient rms                        0.01091584
cart. step max                      0.21131206     0.01000000    F
cart. step rms                      0.06273390     0.00666667    F
 

--------
Geometry
--------
Formula: C9H14N2O4
Atoms
  Index Symbol   x (angstrom)   y (angstrom)   z (angstrom)
      1      C     2.53343656    -3.87120564     0.34848295
      2      N     1.96682034    -2.82231719    -0.50911597
      3      C     2.17258279    -1.49843744    -0.19819934
      4      O     3.01337859    -1.10107792     0.60658577
      5      C     1.43650357    -0.53663515    -1.11861006
      6      C     2.33896825     0.15647080    -2.11896053
      7      N     0.14459237    -0.53065158    -1.36446875
      8      C    -1.10094396    -0.74347415    -0.76872408
      9      C    -2.12012944    -0.15266109    -1.63987842
     10      C    -3.58937781    -0.12565022    -1.25954516
     11      O    -1.74044681     0.37827741    -2.70681933
     12      C    -1.23214592    -1.53016887     0.44236013
     13      O    -0.30693265    -2.08199696     1.02966601
     14      O    -2.53748225    -1.61119808     0.90281805
     15      C    -2.68654598    -2.36840996     2.14260415
     16      H     2.36867596    -4.83940190    -0.13132890
     17      H     2.06355288    -3.86176555     1.33949662
     18      H     3.60576591    -3.69917476     0.46655556
     19      H     1.12405359    -3.04944889    -1.02254179
     20      H     3.31410958     0.33485361    -1.65713842
     21      H     1.92204548     1.11482296    -2.44920305
     22      H     2.49517965    -0.48106454    -3.00131531
     23      H    -0.12056920     0.03969317    -2.21304176
     24      H    -3.99962617    -1.14174604    -1.23466499
     25      H    -3.73139873     0.29239742    -0.25809117
     26      H    -4.12045560     0.47124645    -2.00339246
     27      H    -3.75293415    -2.32905505     2.36855034
     28      H    -2.09924367    -1.91006579     2.94388738
     29      H    -2.35582315    -3.40212503     2.00318253

Total System Charge              0.00000

 *** GO1_GOStep5 ***

 Energy gradients wrt nuclear displacements
 ==========================================

     Atom      Cartesian (a.u./angstrom)
                 X         Y         Z
 ----------------------------------------
     1 C     0.002045 -0.001216  0.002109
     2 N    -0.006717 -0.006328 -0.003737
     3 C     0.010196  0.002729 -0.000882
     4 O    -0.001744 -0.002879 -0.002387
     5 C    -0.013541  0.038591  0.018486
     6 C     0.001694 -0.005755 -0.007616
     7 N    -0.000608 -0.037197 -0.013443
     8 C    -0.002536  0.022042  0.007154
     9 C     0.006809  0.002450 -0.017029
    10 C    -0.003380  0.001647  0.002524
    11 O     0.004849 -0.008749  0.014934
    12 C     0.010871 -0.005904  0.002925
    13 O    -0.011165  0.001942 -0.005065
    14 O    -0.003080  0.000419 -0.001520
    15 C    -0.000343 -0.002883  0.004409
    16 H    -0.000219  0.000599  0.000073
    17 H     0.000687  0.000160 -0.000877
    18 H    -0.001115 -0.000127 -0.000446
    19 H     0.002890 -0.000332 -0.001385
    20 H     0.000201 -0.000794 -0.000220
    21 H     0.001091  0.000507  0.001048
    22 H    -0.000589  0.000895  0.000081
    23 H     0.001961  0.000074  0.000321
    24 H     0.000011  0.000662 -0.000085
    25 H    -0.000503 -0.000286 -0.000305
    26 H     0.001098 -0.000592  0.001130
    27 H     0.001083 -0.000106 -0.000178
    28 H     0.000012 -0.000471 -0.000407
    29 H     0.000044  0.000902  0.000390
 ----------------------------------------

 dE(predicted):    -0.88625E-02, dE(actual):    -0.68771E-02, Trust radius:    0.800000, all in a.u.
 
----------------------------------------------------------------------
Geometry Convergence after Step   5       (Hartree/Angstrom,Angstrom)
----------------------------------------------------------------------
current energy                               -6.20067893 Hartree
energy change                      -0.00687710     0.00029000    F
constrained gradient max            0.03860169     0.00010000    F
constrained gradient rms            0.00796872     0.00006667    F
gradient max                        0.03860169
gradient rms                        0.00796872
cart. step max                      0.19432358     0.01000000    F
cart. step rms                      0.07215273     0.00666667    F
 

--------
Geometry
--------
Formula: C9H14N2O4
Atoms
  Index Symbol   x (angstrom)   y (angstrom)   z (angstrom)
      1      C     2.44289460    -3.91509690     0.35936409
      2      N     1.91973711    -2.88364087    -0.54605579
      3      C     2.12062565    -1.56210257    -0.25937870
      4      O     2.94414575    -1.14629744     0.56044661
      5      C     1.44442091    -0.60564805    -1.21908075
      6      C     2.39730411     0.20167957    -2.06500226
      7      N     0.16155010    -0.45893859    -1.41796775
      8      C    -1.08567970    -0.75994509    -0.84615903
      9      C    -2.15169542    -0.15005388    -1.64475639
     10      C    -3.61015886    -0.24691380    -1.24074132
     11      O    -1.85460789     0.46995430    -2.69981196
     12      C    -1.17679082    -1.51908738     0.38139521
     13      O    -0.22154049    -1.96168569     1.02577292
     14      O    -2.47751956    -1.61404616     0.85576454
     15      C    -2.60936090    -2.29188801     2.14156236
     16      H     2.27817855    -4.89470270    -0.09721467
     17      H     1.93956776    -3.86703590     1.33319945
     18      H     3.51425567    -3.75396901     0.50663421
     19      H     1.06901644    -3.11066053    -1.04916854
     20      H     3.32583951     0.35794925    -1.50848126
     21      H     1.97218740     1.17432965    -2.33736737
     22      H     2.64061085    -0.34553413    -2.98781257
     23      H    -0.10991741     0.17114516    -2.22563305
     24      H    -3.94904395    -1.28923351    -1.27284079
     25      H    -3.75455160     0.09807385    -0.21211706
     26      H    -4.19816409     0.35723822    -1.93636793
     27      H    -3.67786526    -2.26366817     2.36266972
     28      H    -2.03519002    -1.76573694     2.91038686
     29      H    -2.25263844    -3.32445468     2.06791122

Total System Charge              0.00000

 *** GO1_GOStep6 ***
srun: error: Invalid IO init header signature

 Energy gradients wrt nuclear displacements
 ==========================================

     Atom      Cartesian (a.u./angstrom)
                 X         Y         Z
 ----------------------------------------
     1 C     0.000948 -0.000392  0.000767
     2 N    -0.001466  0.002947 -0.001183
     3 C    -0.003480  0.000836 -0.004406
     4 O     0.004903  0.000001  0.004176
     5 C    -0.014506  0.006918 -0.000678
     6 C     0.002291 -0.000812  0.001796
     7 N     0.025998 -0.021799  0.004221
     8 C    -0.005622  0.013512  0.007451
     9 C     0.002829 -0.000327  0.007175
    10 C    -0.000065 -0.001999 -0.000249
    11 O    -0.007516  0.002821 -0.008931
    12 C     0.001366 -0.015830 -0.016927
    13 O     0.003029  0.002518  0.007238
    14 O    -0.004915  0.008674 -0.000355
    15 C    -0.002044 -0.002602  0.005157
    16 H    -0.000462  0.000345 -0.000008
    17 H    -0.000209  0.000432 -0.000593
    18 H     0.000303  0.000121 -0.000276
    19 H     0.001057  0.000139  0.000315
    20 H     0.000735 -0.000450 -0.000009
    21 H     0.000211  0.000517  0.001301
    22 H    -0.001954 -0.000311  0.000642
    23 H    -0.003067  0.003626 -0.006605
    24 H     0.000291  0.000108 -0.000462
    25 H     0.001597 -0.000326  0.001077
    26 H    -0.000818  0.000496  0.000602
    27 H     0.000180  0.000369 -0.000297
    28 H     0.000087  0.000170 -0.000365
    29 H     0.000297  0.000300 -0.000576
 ----------------------------------------

 dE(predicted):    -0.64188E-02, dE(actual):    -0.51390E-02, Trust radius:    1.000000, all in a.u.
 
----------------------------------------------------------------------
Geometry Convergence after Step   6       (Hartree/Angstrom,Angstrom)
----------------------------------------------------------------------
current energy                               -6.20581791 Hartree
energy change                      -0.00513898     0.00029000    F
constrained gradient max            0.02599954     0.00010000    F
constrained gradient rms            0.00570113     0.00006667    F
gradient max                        0.02599954
gradient rms                        0.00570113
cart. step max                      0.20704167     0.01000000    F
cart. step rms                      0.05557994     0.00666667    F
 

--------
Geometry
--------
Formula: C9H14N2O4
Atoms
  Index Symbol   x (angstrom)   y (angstrom)   z (angstrom)
      1      C     2.35854755    -3.93934018     0.36175097
      2      N     1.86748125    -2.90545884    -0.55890113
      3      C     2.09148480    -1.58700851    -0.28345864
      4      O     2.91946947    -1.17704140     0.53403192
      5      C     1.44634209    -0.61396028    -1.24614434
      6      C     2.40859504     0.20135198    -2.07112653
      7      N     0.16673495    -0.38670140    -1.39531852
      8      C    -1.07429305    -0.70480133    -0.82010794
      9      C    -2.14826300    -0.14640583    -1.64558565
     10      C    -3.61276835    -0.27766423    -1.27673256
     11      O    -1.84831798     0.46232805    -2.70898492
     12      C    -1.13494743    -1.37279780     0.45951985
     13      O    -0.15840597    -1.76514541     1.10725759
     14      O    -2.43200225    -1.63954825     0.86874956
     15      C    -2.53581592    -2.33595072     2.14474334
     16      H     2.17917840    -4.91998452    -0.08738684
     17      H     1.84568978    -3.87170641     1.32979703
     18      H     3.43150264    -3.79910611     0.51986700
     19      H     1.00742081    -3.11695232    -1.05452803
     20      H     3.32631404     0.35864016    -1.49764223
     21      H     1.98288685     1.17267100    -2.34708588
     22      H     2.67165498    -0.33852217    -2.99338855
     23      H    -0.10959833     0.26056594    -2.18584892
     24      H    -3.91578361    -1.33170517    -1.27528163
     25      H    -3.80059892     0.10402029    -0.26849069
     26      H    -4.19936421     0.27664061    -2.01432405
     27      H    -3.60869178    -2.44809831     2.31345119
     28      H    -2.07324509    -1.74456513     2.94110894
     29      H    -2.04559677    -3.31372373     2.08920964

Total System Charge              0.00000

 *** GO1_GOStep7 ***

 Energy gradients wrt nuclear displacements
 ==========================================

     Atom      Cartesian (a.u./angstrom)
                 X         Y         Z
 ----------------------------------------
     1 C     0.000193 -0.000036 -0.000587
     2 N     0.004629  0.004609 -0.000994
     3 C    -0.008390 -0.003892 -0.005598
     4 O     0.003099  0.001285  0.004243
     5 C    -0.004297 -0.003641 -0.003784
     6 C     0.000629  0.001492  0.004061
     7 N     0.020203 -0.015957  0.004588
     8 C    -0.003867  0.001742  0.002837
     9 C     0.000164 -0.004299  0.007734
    10 C    -0.000857  0.000687 -0.001423
    11 O    -0.005943  0.004188 -0.010212
    12 C     0.000558  0.024874  0.004664
    13 O     0.004456 -0.010597  0.000631
    14 O    -0.003497 -0.004314 -0.003899
    15 C    -0.000690 -0.002483  0.003296
    16 H    -0.000422  0.000072  0.000126
    17 H    -0.000581  0.000341 -0.000429
    18 H     0.000662  0.000026 -0.000221
    19 H     0.000618  0.000070  0.001655
    20 H     0.000035 -0.000709 -0.000215
    21 H    -0.000009  0.000867  0.000675
    22 H    -0.002086 -0.000203 -0.000050
    23 H    -0.005125  0.005282 -0.003779
    24 H     0.000080 -0.000034 -0.000609
    25 H     0.001226 -0.000278 -0.000569
    26 H    -0.000852  0.000284 -0.000475
    27 H    -0.000213  0.000233 -0.000686
    28 H     0.000272  0.000615 -0.000761
    29 H     0.000005 -0.000226 -0.000219
 ----------------------------------------

 dE(predicted):    -0.28066E-02, dE(actual):    -0.11146E-02, Trust radius:    1.000000, all in a.u.
 
----------------------------------------------------------------------
Geometry Convergence after Step   7       (Hartree/Angstrom,Angstrom)
----------------------------------------------------------------------
current energy                               -6.20693251 Hartree
energy change                      -0.00111460     0.00029000    F
constrained gradient max            0.02484868     0.00010000    F
constrained gradient rms            0.00494193     0.00006667    F
gradient max                        0.02484868
gradient rms                        0.00494193
cart. step max                      0.12324423     0.01000000    F
cart. step rms                      0.05048660     0.00666667    F
 

--------
Geometry
--------
Formula: C9H14N2O4
Atoms
  Index Symbol   x (angstrom)   y (angstrom)   z (angstrom)
      1      C     2.27322015    -3.94712673     0.35834237
      2      N     1.81853373    -2.90526010    -0.57081072
      3      C     2.09348885    -1.59301201    -0.31324894
      4      O     2.94896683    -1.20181650     0.48049360
      5      C     1.45396066    -0.59190259    -1.25274124
      6      C     2.40436733     0.22103835    -2.09381322
      7      N     0.16797639    -0.33175899    -1.35479056
      8      C    -1.05499648    -0.74502390    -0.81053470
      9      C    -2.11454185    -0.15599910    -1.62751411
     10      C    -3.59006301    -0.32249814    -1.32789696
     11      O    -1.76326909     0.54521075    -2.61107535
     12      C    -1.11369411    -1.43172754     0.45975406
     13      O    -0.14215964    -1.67517677     1.17720598
     14      O    -2.39799053    -1.74536758     0.85458182
     15      C    -2.49180724    -2.34140202     2.17646659
     16      H     2.06367996    -4.92590994    -0.08258955
     17      H     1.76331108    -3.85619772     1.32677581
     18      H     3.35012374    -3.84194803     0.51764969
     19      H     0.94470726    -3.08795673    -1.05580834
     20      H     3.30805339     0.42575367    -1.51323568
     21      H     1.95486967     1.16843659    -2.41143754
     22      H     2.70181467    -0.34000229    -2.99352745
     23      H    -0.12193972     0.34870200    -2.10313696
     24      H    -3.87991142    -1.37871108    -1.39242981
     25      H    -3.83202350     0.00677038    -0.31237339
     26      H    -4.14860855     0.26166044    -2.06425581
     27      H    -3.55960719    -2.51056036     2.33218394
     28      H    -2.09056555    -1.66088645     2.93446260
     29      H    -1.94028583    -3.28729761     2.21245387

Total System Charge              0.00000

 *** GO1_GOStep8 ***

 Energy gradients wrt nuclear displacements
 ==========================================

     Atom      Cartesian (a.u./angstrom)
                 X         Y         Z
 ----------------------------------------
     1 C    -0.000818  0.001052 -0.002114
     2 N     0.008262  0.003283 -0.000550
     3 C    -0.006696 -0.004154  0.001421
     4 O    -0.001631  0.000242 -0.001078
     5 C     0.013371 -0.007922 -0.001603
     6 C     0.000540  0.000405 -0.000196
     7 N    -0.016904  0.010674 -0.008689
     8 C    -0.000424  0.002629  0.006550
     9 C     0.000982 -0.003790 -0.005776
    10 C    -0.001283  0.003478  0.001295
    11 O     0.008738 -0.004169  0.007686
    12 C    -0.001127 -0.008760 -0.004544
    13 O    -0.005564  0.003974  0.001666
    14 O     0.004123  0.001441  0.005351
    15 C     0.001932  0.001087 -0.000089
    16 H    -0.000244 -0.000316  0.000163
    17 H    -0.000457  0.000121  0.000488
    18 H     0.000753 -0.000153  0.000120
    19 H    -0.000204  0.000065  0.001525
    20 H    -0.001151 -0.001055 -0.000275
    21 H     0.000141  0.000927  0.000313
    22 H    -0.000684  0.000851 -0.001597
    23 H    -0.000751 -0.000250  0.003408
    24 H     0.000053 -0.000073 -0.000711
    25 H    -0.000857 -0.000367 -0.000783
    26 H     0.000323  0.000595 -0.000993
    27 H    -0.000463  0.000194 -0.000385
    28 H    -0.000136  0.000532 -0.000078
    29 H     0.000175 -0.000543 -0.000523
 ----------------------------------------

 dE(predicted):    -0.18353E-02, dE(actual):    -0.91479E-03, Trust radius:    1.000000, all in a.u.
 
----------------------------------------------------------------------
Geometry Convergence after Step   8       (Hartree/Angstrom,Angstrom)
----------------------------------------------------------------------
current energy                               -6.20784730 Hartree
energy change                      -0.00091479     0.00029000    F
constrained gradient max            0.01689950     0.00010000    F
constrained gradient rms            0.00396654     0.00006667    F
gradient max                        0.01689950
gradient rms                        0.00396654
cart. step max                      0.14180817     0.01000000    F
cart. step rms                      0.06453715     0.00666667    F
 

--------
Geometry
--------
Formula: C9H14N2O4
Atoms
  Index Symbol   x (angstrom)   y (angstrom)   z (angstrom)
      1      C     2.18798823    -3.88142316     0.45168485
      2      N     1.76710966    -2.85933826    -0.51457532
      3      C     2.12482649    -1.55197941    -0.32803493
      4      O     3.02432509    -1.17092605     0.41988067
      5      C     1.48157859    -0.56088483    -1.27823388
      6      C     2.43731437     0.20474740    -2.15728009
      7      N     0.19253327    -0.32035395    -1.38838804
      8      C    -1.02522947    -0.73123008    -0.82927158
      9      C    -2.10864395    -0.11852365    -1.59634608
     10      C    -3.56596127    -0.30797527    -1.23026670
     11      O    -1.80461529     0.59868510    -2.58233923
     12      C    -1.08922531    -1.44134669     0.42911308
     13      O    -0.12379427    -1.72730085     1.13645103
     14      O    -2.37642942    -1.78458919     0.78680322
     15      C    -2.48991774    -2.43788725     2.07958399
     16      H     1.92187179    -4.86666516     0.05822152
     17      H     1.70406749    -3.72336353     1.42468524
     18      H     3.27147137    -3.82390054     0.58639576
     19      H     0.87845951    -3.01737531    -0.98112209
     20      H     3.33063056     0.45895320    -1.57928870
     21      H     1.98356195     1.12286843    -2.54592510
     22      H     2.75652826    -0.41362085    -3.01059421
     23      H    -0.10020576     0.32788002    -2.16136295
     24      H    -3.84614787    -1.36700375    -1.29154568
     25      H    -3.76211165     0.00690517    -0.19992184
     26      H    -4.16708763     0.27737586    -1.93049266
     27      H    -3.55818776    -2.62377118     2.20992727
     28      H    -2.10892088    -1.78853185     2.87448095
     29      H    -1.93017836    -3.37939435     2.08691150

Total System Charge              0.00000

 *** GO1_GOStep9 ***

 Energy gradients wrt nuclear displacements
 ==========================================

     Atom      Cartesian (a.u./angstrom)
                 X         Y         Z
 ----------------------------------------
     1 C    -0.001196  0.000877 -0.001161
     2 N     0.000091  0.000406  0.001858
     3 C     0.001751  0.001160  0.003375
     4 O    -0.002477  0.000064 -0.002107
     5 C     0.005330 -0.000018 -0.000365
     6 C     0.003986 -0.001868 -0.001026
     7 N    -0.010027  0.010618 -0.004075
     8 C    -0.001196 -0.002618  0.002535
     9 C     0.001098 -0.000972 -0.001944
    10 C     0.001998  0.000165  0.003471
    11 O     0.003971 -0.001349  0.004413
    12 C    -0.002762 -0.000802  0.002567
    13 O    -0.002811 -0.003070 -0.005208
    14 O     0.002916  0.001649 -0.000891
    15 C     0.000547  0.000610 -0.001080
    16 H    -0.000240 -0.000137  0.000037
    17 H     0.000100 -0.000068  0.001239
    18 H     0.000149 -0.000044  0.000360
    19 H    -0.001379 -0.000001 -0.000405
    20 H    -0.000549 -0.000436 -0.000547
    21 H     0.000320  0.000635  0.000578
    22 H    -0.000370  0.001029 -0.001472
    23 H     0.000868 -0.004118 -0.000366
    24 H    -0.000225 -0.001107 -0.000255
    25 H    -0.000146 -0.000523  0.000689
    26 H     0.000450 -0.000115 -0.000198
    27 H    -0.000182 -0.000032  0.000029
    28 H    -0.000095  0.000255  0.000087
    29 H     0.000080 -0.000188 -0.000138
 ----------------------------------------

 dE(predicted):    -0.11845E-02, dE(actual):    -0.72006E-03, Trust radius:    1.000000, all in a.u.
 
----------------------------------------------------------------------
Geometry Convergence after Step   9       (Hartree/Angstrom,Angstrom)
----------------------------------------------------------------------
current energy                               -6.20856736 Hartree
energy change                      -0.00072006     0.00029000    F
constrained gradient max            0.01060829     0.00010000    F
constrained gradient rms            0.00236965     0.00006667    F
gradient max                        0.01060829
gradient rms                        0.00236965
cart. step max                      0.21167012     0.01000000    F
cart. step rms                      0.06948053     0.00666667    F
 

--------
Geometry
--------
Formula: C9H14N2O4
Atoms
  Index Symbol   x (angstrom)   y (angstrom)   z (angstrom)
      1      C     2.13364436    -3.94802733     0.34606130
      2      N     1.72143175    -2.86700721    -0.55934142
      3      C     2.11980349    -1.57670042    -0.32115032
      4      O     3.03185551    -1.25093435     0.43915881
      5      C     1.48711498    -0.53952936    -1.22974178
      6      C     2.45551475     0.25363617    -2.06826964
      7      N     0.20337491    -0.30929135    -1.37079415
      8      C    -1.02424540    -0.71775758    -0.83472817
      9      C    -2.12045063    -0.18127282    -1.64741396
     10      C    -3.57420522    -0.38441117    -1.27170716
     11      O    -1.84363166     0.45690693    -2.69472528
     12      C    -1.07385967    -1.35741719     0.46327471
     13      O    -0.10723051    -1.51563073     1.21177502
     14      O    -2.34207175    -1.78263446     0.81126898
     15      C    -2.44479795    -2.36626821     2.13926474
     16      H     1.84947586    -4.90535060    -0.09984177
     17      H     1.66042548    -3.83716315     1.33002875
     18      H     3.21862342    -3.91415230     0.47296940
     19      H     0.83307398    -2.98483732    -1.03787742
     20      H     3.31919378     0.53144769    -1.45583152
     21      H     1.99280186     1.15839754    -2.47626551
     22      H     2.82605879    -0.35838522    -2.90482397
     23      H    -0.06790693     0.34543248    -2.14707348
     24      H    -3.82249551    -1.45200008    -1.24003470
     25      H    -3.78383950     0.01336826    -0.27318049
     26      H    -4.19064337     0.12023644    -2.01933005
     27      H    -3.49884497    -2.62633001     2.25557361
     28      H    -2.13664765    -1.64513319     2.90308791
     29      H    -1.81591220    -3.25916148     2.21881754

Total System Charge              0.00000

 *** GO1_GOStep10 ***

 Energy gradients wrt nuclear displacements
 ==========================================

     Atom      Cartesian (a.u./angstrom)
                 X         Y         Z
 ----------------------------------------
     1 C    -0.000228 -0.000388  0.001013
     2 N     0.000648 -0.002469 -0.003006
     3 C     0.003905 -0.000910 -0.001505
     4 O     0.000292  0.002651  0.003360
     5 C    -0.004896  0.001241  0.001092
     6 C     0.003024 -0.001005 -0.001028
     7 N     0.007915 -0.006645  0.006226
     8 C     0.000978  0.001731  0.000441
     9 C    -0.002309  0.003331  0.005279
    10 C     0.000916  0.001536 -0.000492
    11 O    -0.004343 -0.001018 -0.005542
    12 C    -0.002905  0.000733 -0.004130
    13 O     0.000074  0.000157  0.001370
    14 O     0.000351  0.000518  0.000008
    15 C    -0.000147 -0.000126 -0.000448
    16 H    -0.000072 -0.000003 -0.000141
    17 H     0.000210 -0.000152 -0.000130
    18 H    -0.000210 -0.000298 -0.000236
    19 H    -0.000525 -0.000036  0.000063
    20 H    -0.000153 -0.000317 -0.000689
    21 H     0.000200  0.000372  0.000512
    22 H    -0.000987  0.000614 -0.000943
    23 H    -0.001572  0.002582 -0.001679
    24 H    -0.000314 -0.000829  0.000026
    25 H     0.000441 -0.000416 -0.000567
    26 H    -0.000008 -0.000625  0.000245
    27 H     0.000167 -0.000230  0.000426
    28 H    -0.000136 -0.000212  0.000096
    29 H    -0.000315  0.000214  0.000381
 ----------------------------------------

 dE(predicted):    -0.10571E-02, dE(actual):    -0.77398E-03, Trust radius:    1.000000, all in a.u.
 
----------------------------------------------------------------------
Geometry Convergence after Step  10       (Hartree/Angstrom,Angstrom)
----------------------------------------------------------------------
current energy                               -6.20934134 Hartree
energy change                      -0.00077398     0.00029000    F
constrained gradient max            0.00790489     0.00010000    F
constrained gradient rms            0.00210723     0.00006667    F
gradient max                        0.00790489
gradient rms                        0.00210723
cart. step max                      0.13281553     0.01000000    F
cart. step rms                      0.04814495     0.00666667    F
 

--------
Geometry
--------
Formula: C9H14N2O4
Atoms
  Index Symbol   x (angstrom)   y (angstrom)   z (angstrom)
      1      C     2.04949638    -3.96913956     0.31051811
      2      N     1.64120092    -2.86198020    -0.56423974
      3      C     2.09559954    -1.59006583    -0.33032365
      4      O     3.05852944    -1.31203190     0.38327688
      5      C     1.48863671    -0.52809055    -1.22657284
      6      C     2.46744947     0.28756783    -2.02687110
      7      N     0.20750352    -0.29341149    -1.36996418
      8      C    -1.01194055    -0.73311289    -0.84507781
      9      C    -2.10955512    -0.21946146    -1.67061273
     10      C    -3.56416881    -0.44719019    -1.31171240
     11      O    -1.83076105     0.46812120    -2.68548396
     12      C    -1.04514036    -1.32240149     0.47860354
     13      O    -0.08340001    -1.38281520     1.24826279
     14      O    -2.28943787    -1.81705358     0.82123989
     15      C    -2.38176650    -2.34600061     2.17191523
     16      H     1.72873914    -4.91118102    -0.14308773
     17      H     1.60639801    -3.86283662     1.30881586
     18      H     3.13801220    -3.96470075     0.40768966
     19      H     0.73733784    -2.94508287    -1.02038862
     20      H     3.28136888     0.61697708    -1.37222218
     21      H     1.99186748     1.15980479    -2.48694219
     22      H     2.91538383    -0.33001711    -2.82035738
     23      H    -0.06408471     0.35754480    -2.14670784
     24      H    -3.79951064    -1.51742420    -1.29461624
     25      H    -3.78862638    -0.06323696    -0.31046781
     26      H    -4.18000821     0.06046137    -2.05798319
     27      H    -3.42033905    -2.66417798     2.28306180
     28      H    -2.13152294    -1.57461405     2.90742616
     29      H    -1.70165119    -3.19442058     2.30197165

Total System Charge              0.00000

 *** GO1_GOStep11 ***

 Energy gradients wrt nuclear displacements
 ==========================================

     Atom      Cartesian (a.u./angstrom)
                 X         Y         Z
 ----------------------------------------
     1 C    -0.000055 -0.000804  0.001452
     2 N     0.002930 -0.000992 -0.004303
     3 C    -0.004319 -0.000675  0.007675
     4 O     0.000546  0.001486 -0.001990
     5 C    -0.002731 -0.000241 -0.003822
     6 C     0.001703  0.001068 -0.000406
     7 N     0.004590 -0.004853  0.009472
     8 C     0.000982  0.003927  0.001442
     9 C    -0.001329 -0.006565 -0.002559
    10 C    -0.000080  0.003355 -0.000120
    11 O    -0.002779  0.003921 -0.001265
    12 C    -0.001418  0.000699 -0.004455
    13 O     0.002651  0.000967  0.002210
    14 O     0.000293 -0.000758  0.001425
    15 C    -0.000222  0.000088 -0.001561
    16 H     0.000067 -0.000157 -0.000196
    17 H     0.000045  0.000348 -0.000569
    18 H    -0.000185 -0.000383 -0.000371
    19 H     0.000238  0.000352 -0.000007
    20 H    -0.000107 -0.000134 -0.000370
    21 H     0.000634  0.000323  0.000142
    22 H    -0.001170 -0.000003 -0.001053
    23 H    -0.000141 -0.000552 -0.001470
    24 H     0.000130  0.000178 -0.000113
    25 H    -0.000413 -0.000323 -0.000398
    26 H     0.000094 -0.000122  0.000192
    27 H     0.000224 -0.000024  0.000354
    28 H     0.000047 -0.000153  0.000235
    29 H    -0.000225  0.000029  0.000429
 ----------------------------------------

 dE(predicted):    -0.52958E-03, dE(actual):    -0.70339E-03, Trust radius:    1.000000, all in a.u.
 
----------------------------------------------------------------------
Geometry Convergence after Step  11       (Hartree/Angstrom,Angstrom)
----------------------------------------------------------------------
current energy                               -6.21004473 Hartree
energy change                      -0.00070339     0.00029000    F
constrained gradient max            0.00946652     0.00010000    F
constrained gradient rms            0.00222289     0.00006667    F
gradient max                        0.00946652
gradient rms                        0.00222289
cart. step max                      0.21670584     0.01000000    F
cart. step rms                      0.06419281     0.00666667    F
 

--------
Geometry
--------
Formula: C9H14N2O4
Atoms
  Index Symbol   x (angstrom)   y (angstrom)   z (angstrom)
      1      C     1.91837183    -3.98020786     0.27745306
      2      N     1.53163110    -2.84601956    -0.57072851
      3      C     2.10129059    -1.61367343    -0.38622855
      4      O     3.12052487    -1.40956263     0.27074778
      5      C     1.50641268    -0.50639159    -1.23341979
      6      C     2.48640835     0.34544982    -1.98779455
      7      N     0.22391103    -0.26661770    -1.36411642
      8      C    -0.97911564    -0.75389275    -0.84676532
      9      C    -2.07938420    -0.26023403    -1.67877036
     10      C    -3.53114102    -0.53883788    -1.34478609
     11      O    -1.79978552     0.43710543    -2.68559557
     12      C    -1.00606878    -1.29257660     0.50110913
     13      O    -0.06429072    -1.25451392     1.29549926
     14      O    -2.22295264    -1.85687442     0.83071089
     15      C    -2.32083900    -2.32767835     2.20118704
     16      H     1.51203330    -4.89841805    -0.15606742
     17      H     1.54309156    -3.84995827     1.30056258
     18      H     3.00885716    -4.04512219     0.31027502
     19      H     0.59910082    -2.86465877    -0.97334114
     20      H     3.23684811     0.73313542    -1.28938105
     21      H     1.99490336     1.17795829    -2.50116784
     22      H     3.02338282    -0.26499486    -2.72979784
     23      H    -0.05676369     0.40254852    -2.11799830
     24      H    -3.73005916    -1.61586273    -1.32220593
     25      H    -3.78623474    -0.15411050    -0.35048568
     26      H    -4.15133880    -0.05644315    -2.10441482
     27      H    -3.33997709    -2.70730905     2.30011850
     28      H    -2.14152925    -1.50901033     2.90584765
     29      H    -1.59167733    -3.12319884     2.38870426

Total System Charge              0.00000

 *** GO1_GOStep12 ***

 Energy gradients wrt nuclear displacements
 ==========================================

     Atom      Cartesian (a.u./angstrom)
                 X         Y         Z
 ----------------------------------------
     1 C     0.000054 -0.000590  0.002173
     2 N     0.000503 -0.001577 -0.003238
     3 C     0.002894  0.001073  0.005700
     4 O    -0.003103 -0.000457 -0.002255
     5 C    -0.000923  0.000027 -0.004431
     6 C     0.000229  0.002116 -0.000296
     7 N    -0.005451 -0.001393  0.004937
     8 C     0.002325  0.001050  0.001529
     9 C     0.000854 -0.001247 -0.002769
    10 C    -0.000265  0.000683 -0.000713
    11 O     0.001235  0.000981  0.000932
    12 C    -0.002165 -0.001369 -0.004772
    13 O     0.002526  0.002297  0.003071
    14 O     0.000995 -0.001108  0.002795
    15 C     0.000454  0.000350 -0.002808
    16 H     0.000100 -0.000485 -0.000338
    17 H     0.000082  0.000406 -0.000646
    18 H    -0.000215 -0.000001 -0.000446
    19 H     0.000086  0.000829  0.000759
    20 H    -0.000400 -0.000398  0.000112
    21 H     0.000656  0.000116 -0.000377
    22 H    -0.000789 -0.000651 -0.001379
    23 H     0.000739 -0.001204  0.001483
    24 H    -0.000323  0.000573  0.000124
    25 H    -0.000410 -0.000073 -0.000099
    26 H     0.000293  0.000269  0.000042
    27 H    -0.000035 -0.000030  0.000269
    28 H     0.000115 -0.000094  0.000279
    29 H    -0.000060 -0.000095  0.000361
 ----------------------------------------

 dE(predicted):    -0.82568E-03, dE(actual):    -0.52958E-03, Trust radius:    1.000000, all in a.u.
 
----------------------------------------------------------------------
Geometry Convergence after Step  12       (Hartree/Angstrom,Angstrom)
----------------------------------------------------------------------
current energy                               -6.21057431 Hartree
energy change                      -0.00052958     0.00029000    F
constrained gradient max            0.00574583     0.00010000    F
constrained gradient rms            0.00172802     0.00006667    F
gradient max                        0.00574583
gradient rms                        0.00172802
cart. step max                      0.17445173     0.01000000    F
cart. step rms                      0.07055281     0.00666667    F
 

--------
Geometry
--------
Formula: C9H14N2O4
Atoms
  Index Symbol   x (angstrom)   y (angstrom)   z (angstrom)
      1      C     1.86585301    -4.02727856     0.16670001
      2      N     1.47509738    -2.84441400    -0.60743087
      3      C     2.09745134    -1.64066091    -0.41148386
      4      O     3.14484789    -1.49828113     0.21926787
      5      C     1.51576310    -0.49192351    -1.20963226
      6      C     2.50449833     0.41174810    -1.88311523
      7      N     0.23103925    -0.27547835    -1.38012533
      8      C    -0.96256354    -0.79216621    -0.86753832
      9      C    -2.07505145    -0.33610963    -1.70380453
     10      C    -3.51728619    -0.65255846    -1.36131985
     11      O    -1.81042557     0.34628940    -2.72276685
     12      C    -0.98280007    -1.28027489     0.50350747
     13      O    -0.03582327    -1.22097226     1.28696070
     14      O    -2.20356508    -1.81580646     0.86295212
     15      C    -2.30776780    -2.19627001     2.26107474
     16      H     1.42757672    -4.91373739    -0.29999742
     17      H     1.52605374    -3.94618066     1.20752482
     18      H     2.95553002    -4.11373547     0.16144802
     19      H     0.53634906    -2.82668564    -0.99531238
     20      H     3.16777719     0.84682689    -1.12563161
     21      H     2.00971468     1.21049256    -2.44467617
     22      H     3.14465015    -0.16874437    -2.56390707
     23      H    -0.04588818     0.39811478    -2.12933732
     24      H    -3.68142591    -1.73418644    -1.31071538
     25      H    -3.78212066    -0.25013419    -0.37605912
     26      H    -4.15472139    -0.20818818    -2.13017183
     27      H    -3.32930881    -2.56325742     2.38102271
     28      H    -2.12513837    -1.33455860     2.91157820
     29      H    -1.58270558    -2.98183899     2.50013872

Total System Charge              0.00000

 *** GO1_GOStep13 ***

 Energy gradients wrt nuclear displacements
 ==========================================

     Atom      Cartesian (a.u./angstrom)
                 X         Y         Z
 ----------------------------------------
     1 C     0.000015 -0.001599  0.002039
     2 N    -0.001384 -0.000063 -0.001601
     3 C     0.003339  0.001603  0.003138
     4 O    -0.001957 -0.002359 -0.000591
     5 C     0.001795  0.001807 -0.003138
     6 C    -0.000910  0.002934  0.001540
     7 N    -0.008533 -0.002262  0.000819
     8 C     0.002984  0.001347 -0.000830
     9 C    -0.000498  0.001431 -0.002170
    10 C     0.000869 -0.002211 -0.000300
    11 O     0.002507 -0.000789  0.002314
    12 C    -0.000060 -0.002207  0.000310
    13 O     0.000180  0.001287 -0.000508
    14 O     0.000549 -0.001263  0.001527
    15 C    -0.000468  0.001484 -0.002436
    16 H     0.000352  0.000038 -0.000262
    17 H     0.000102  0.000386 -0.000560
    18 H    -0.000081  0.000036 -0.000372
    19 H    -0.000045  0.000844  0.000550
    20 H     0.000043 -0.000648  0.000017
    21 H     0.000265 -0.000238 -0.000569
    22 H    -0.000138 -0.001087 -0.001177
    23 H     0.001062 -0.000093  0.000621
    24 H    -0.000198  0.000802  0.000093
    25 H    -0.000242  0.000370  0.000776
    26 H    -0.000070  0.000611  0.000229
    27 H    -0.000040  0.000019  0.000126
    28 H     0.000194  0.000019  0.000431
    29 H     0.000367 -0.000199 -0.000016
 ----------------------------------------

 dE(predicted):    -0.37499E-03, dE(actual):    -0.26065E-03, Trust radius:    1.000000, all in a.u.
 
----------------------------------------------------------------------
Geometry Convergence after Step  13       (Hartree/Angstrom,Angstrom)
----------------------------------------------------------------------
current energy                               -6.21083496 Hartree
energy change                      -0.00026065     0.00029000    T
constrained gradient max            0.00853148     0.00010000    F
constrained gradient rms            0.00157654     0.00006667    F
gradient max                        0.00853148
gradient rms                        0.00157654
cart. step max                      0.06454096     0.01000000    F
cart. step rms                      0.02116472     0.00666667    F
 

--------
Geometry
--------
Formula: C9H14N2O4
Atoms
  Index Symbol   x (angstrom)   y (angstrom)   z (angstrom)
      1      C     1.90879486    -4.03458906     0.16359109
      2      N     1.49669671    -2.85551498    -0.60333531
      3      C     2.09485191    -1.64098610    -0.40368333
      4      O     3.13792661    -1.47827644     0.23136538
      5      C     1.50624956    -0.50087317    -1.20590938
      6      C     2.50005744     0.40100867    -1.87364149
      7      N     0.22433374    -0.28239769    -1.39096391
      8      C    -0.97605915    -0.78628061    -0.87407178
      9      C    -2.09029377    -0.32843207    -1.70721890
     10      C    -3.53312842    -0.63276902    -1.35526076
     11      O    -1.83005883     0.33670661    -2.73873361
     12      C    -0.99643236    -1.27806793     0.49630361
     13      O    -0.03662044    -1.26904972     1.26539193
     14      O    -2.23271252    -1.76574899     0.87172428
     15      C    -2.32032900    -2.18442477     2.26158941
     16      H     1.49211768    -4.92652903    -0.31242430
     17      H     1.56053137    -3.97098769     1.20319614
     18      H     3.00019226    -4.09740696     0.16576159
     19      H     0.56371515    -2.85961966    -1.00537672
     20      H     3.14696869     0.84958313    -1.10967044
     21      H     2.00721533     1.19194066    -2.44788647
     22      H     3.15757779    -0.17840232    -2.53731456
     23      H    -0.04703401     0.38690728    -2.14653100
     24      H    -3.69988853    -1.71344133    -1.28769673
     25      H    -3.79331851    -0.21447909    -0.37586940
     26      H    -4.17117853    -0.19948729    -2.12988025
     27      H    -3.35441130    -2.50889551     2.39548552
     28      H    -2.08392579    -1.35112295     2.93119509
     29      H    -1.62622793    -3.00833394     2.45901430

Total System Charge              0.00000

 *** GO1_GOStep14 ***

 Energy gradients wrt nuclear displacements
 ==========================================

     Atom      Cartesian (a.u./angstrom)
                 X         Y         Z
 ----------------------------------------
     1 C     0.000214 -0.000859  0.000973
     2 N    -0.000672 -0.000279 -0.000341
     3 C     0.001917  0.001514  0.001234
     4 O    -0.000115 -0.000710 -0.000254
     5 C    -0.000418  0.000710 -0.000302
     6 C    -0.000649  0.000610  0.001638
     7 N    -0.001915 -0.000300 -0.001146
     8 C     0.001425  0.000110 -0.002171
     9 C    -0.000885  0.001999  0.000072
    10 C     0.000749 -0.001407 -0.000169
    11 O     0.000273 -0.001180  0.000907
    12 C     0.000909 -0.000033  0.002658
    13 O    -0.001151 -0.000675 -0.001839
    14 O     0.000598 -0.000316 -0.000041
    15 C    -0.000339  0.000347 -0.000967
    16 H     0.000020  0.000123 -0.000149
    17 H     0.000019  0.000068 -0.000168
    18 H    -0.000041 -0.000003 -0.000139
    19 H    -0.000247  0.000029 -0.000049
    20 H     0.000066 -0.000511 -0.000062
    21 H    -0.000062 -0.000222  0.000048
    22 H     0.000022 -0.000546 -0.000600
    23 H     0.000332  0.000484 -0.000208
    24 H    -0.000055  0.000313 -0.000042
    25 H     0.000034  0.000230  0.000543
    26 H    -0.000327  0.000355  0.000206
    27 H    -0.000006  0.000105  0.000103
    28 H     0.000171  0.000131  0.000177
    29 H     0.000131 -0.000090  0.000088
 ----------------------------------------

 dE(predicted):    -0.14096E-03, dE(actual):    -0.11539E-03, Trust radius:    1.000000, all in a.u.
 
----------------------------------------------------------------------
Geometry Convergence after Step  14       (Hartree/Angstrom,Angstrom)
----------------------------------------------------------------------
current energy                               -6.21095035 Hartree
energy change                      -0.00011539     0.00029000    T
constrained gradient max            0.00264951     0.00010000    F
constrained gradient rms            0.00078194     0.00006667    F
gradient max                        0.00264951
gradient rms                        0.00078194
cart. step max                      0.06023245     0.01000000    F
cart. step rms                      0.01900918     0.00666667    F
 

--------
Geometry
--------
Formula: C9H14N2O4
Atoms
  Index Symbol   x (angstrom)   y (angstrom)   z (angstrom)
      1      C     1.87791477    -4.04085317     0.13888739
      2      N     1.47388610    -2.84964979    -0.61204553
      3      C     2.08904934    -1.64461850    -0.41026598
      4      O     3.13710245    -1.49586648     0.22094428
      5      C     1.51098060    -0.49260383    -1.20040581
      6      C     2.51055472     0.40894787    -1.86030401
      7      N     0.23056998    -0.26806609    -1.38180616
      8      C    -0.96971770    -0.77648576    -0.86484265
      9      C    -2.08428782    -0.34546557    -1.71179863
     10      C    -3.52546407    -0.66537018    -1.36610577
     11      O    -1.82922269     0.31482749    -2.74825117
     12      C    -0.99208256    -1.24898383     0.51243864
     13      O    -0.03658883    -1.21855020     1.28716046
     14      O    -2.22485656    -1.74632821     0.88859341
     15      C    -2.30628203    -2.17322875     2.27728789
     16      H     1.45105294    -4.92336166    -0.34564578
     17      H     1.53432851    -3.98748602     1.18082035
     18      H     2.96869943    -4.11369407     0.13671899
     19      H     0.54140271    -2.84193087    -1.01528426
     20      H     3.13800654     0.87341795    -1.08920247
     21      H     2.02190091     1.18951575    -2.45206718
     22      H     3.18802336    -0.17038670    -2.50253484
     23      H    -0.04202106     0.39571210    -2.14140428
     24      H    -3.67467286    -1.74731523    -1.27743113
     25      H    -3.80180224    -0.23132758    -0.39840153
     26      H    -4.16260005    -0.25971974    -2.15608898
     27      H    -3.33648919    -2.51018737     2.41001108
     28      H    -2.07889200    -1.34067064     2.95062746
     29      H    -1.60288269    -2.99024090     2.46954620

Total System Charge              0.00000

 *** GO1_GOStep15 ***

 Energy gradients wrt nuclear displacements
 ==========================================

     Atom      Cartesian (a.u./angstrom)
                 X         Y         Z
 ----------------------------------------
     1 C    -0.000016 -0.000469  0.000419
     2 N    -0.000556 -0.000329 -0.000577
     3 C     0.000565  0.000010 -0.000680
     4 O     0.000256  0.000466  0.000083
     5 C    -0.001176  0.001128  0.000133
     6 C     0.000011  0.000288  0.001018
     7 N     0.001808 -0.000743  0.000754
     8 C     0.001041  0.000402 -0.000982
     9 C    -0.000638 -0.000396 -0.000429
    10 C     0.000400 -0.000081  0.000139
    11 O    -0.001117  0.000135  0.000174
    12 C    -0.000078  0.000732  0.001026
    13 O    -0.000832 -0.000040  0.000074
    14 O     0.000154  0.000140 -0.000126
    15 C    -0.000052 -0.000541 -0.000223
    16 H    -0.000049  0.000167 -0.000116
    17 H     0.000029 -0.000061 -0.000104
    18 H    -0.000081  0.000048 -0.000095
    19 H    -0.000076 -0.000324 -0.000094
    20 H     0.000163 -0.000467 -0.000184
    21 H     0.000060 -0.000225  0.000159
    22 H     0.000308  0.000019 -0.000270
    23 H    -0.000116 -0.000235 -0.000511
    24 H     0.000159  0.000071 -0.000152
    25 H     0.000041  0.000014  0.000207
    26 H    -0.000253  0.000141  0.000055
    27 H     0.000014  0.000035  0.000116
    28 H     0.000138  0.000112  0.000045
    29 H    -0.000110  0.000000  0.000144
 ----------------------------------------

 dE(predicted):    -0.56511E-04, dE(actual):     0.36478E-04, Trust radius:    0.027836, all in a.u.
 
----------------------------------------------------------------------
Geometry Convergence after Step  15       (Hartree/Angstrom,Angstrom)
----------------------------------------------------------------------
current energy                               -6.21091388 Hartree
energy change                       0.00003648     0.00029000    T
constrained gradient max            0.00180605     0.00010000    F
constrained gradient rms            0.00046514     0.00006667    F
gradient max                        0.00180605
gradient rms                        0.00046514
cart. step max                      0.01866789     0.01000000    F
cart. step rms                      0.00750659     0.00666667    F
 

--------
Geometry
--------
Formula: C9H14N2O4
Atoms
  Index Symbol   x (angstrom)   y (angstrom)   z (angstrom)
      1      C     1.88713151    -4.03813726     0.14789489
      2      N     1.47862757    -2.84986987    -0.60489050
      3      C     2.08925374    -1.64274764    -0.40589158
      4      O     3.13744622    -1.48943098     0.22401792
      5      C     1.50967102    -0.49568772    -1.20179420
      6      C     2.50477911     0.40407889    -1.87143011
      7      N     0.22903231    -0.27045524    -1.37956427
      8      C    -0.97191306    -0.77696247    -0.86165371
      9      C    -2.08275852    -0.33702174    -1.70845377
     10      C    -3.52681474    -0.64918733    -1.36737895
     11      O    -1.82134875     0.32192774    -2.74478680
     12      C    -0.99373544    -1.25653343     0.51248258
     13      O    -0.03629045    -1.23349579     1.28569676
     14      O    -2.22814209    -1.75106704     0.88781565
     15      C    -2.30929530    -2.18443267     2.27461856
     16      H     1.46285108    -4.92331393    -0.33410398
     17      H     1.54412299    -3.98356012     1.18999499
     18      H     2.97816868    -4.10757597     0.14523095
     19      H     0.54577119    -2.84549868    -1.00715573
     20      H     3.13276503     0.87680015    -1.10564922
     21      H     2.01206164     1.17914405    -2.46729153
     22      H     3.18164993    -0.17796676    -2.51142250
     23      H    -0.04498900     0.39528162    -2.13712809
     24      H    -3.68225700    -1.73030389    -1.27798853
     25      H    -3.80447274    -0.21265969    -0.40132493
     26      H    -4.15843630    -0.24123303    -2.16044334
     27      H    -3.33968982    -2.52145389     2.40565122
     28      H    -2.08118077    -1.35559489     2.95211136
     29      H    -1.60639805    -3.00301242     2.46198686

Total System Charge              0.00000

 *** GO1_GOStep16 ***

 Energy gradients wrt nuclear displacements
 ==========================================

     Atom      Cartesian (a.u./angstrom)
                 X         Y         Z
 ----------------------------------------
     1 C     0.000067 -0.000316  0.000106
     2 N    -0.000111  0.000213 -0.000174
     3 C    -0.000802 -0.000137  0.000266
     4 O     0.000295  0.000157 -0.000241
     5 C    -0.000263  0.000420  0.000311
     6 C    -0.000364  0.000263  0.000262
     7 N     0.001052 -0.000227 -0.000378
     8 C     0.000286 -0.000561 -0.000243
     9 C     0.000114  0.000478  0.000409
    10 C    -0.000104  0.000181  0.000078
    11 O    -0.000393 -0.000033 -0.000563
    12 C    -0.000040  0.000300  0.000333
    13 O     0.000261  0.000003  0.000321
    14 O    -0.000031 -0.000112 -0.000104
    15 C     0.000001 -0.000180  0.000108
    16 H    -0.000028  0.000066 -0.000054
    17 H    -0.000006 -0.000028 -0.000072
    18 H    -0.000055 -0.000025 -0.000050
    19 H    -0.000033 -0.000111 -0.000055
    20 H     0.000030 -0.000361 -0.000064
    21 H     0.000093  0.000011  0.000113
    22 H     0.000109  0.000090 -0.000175
    23 H    -0.000099  0.000061  0.000020
    24 H     0.000001 -0.000034 -0.000135
    25 H     0.000061 -0.000117 -0.000061
    26 H    -0.000059  0.000048 -0.000004
    27 H     0.000014  0.000015  0.000015
    28 H     0.000082 -0.000037  0.000024
    29 H    -0.000077 -0.000029  0.000005
 ----------------------------------------

 dE(predicted):    -0.26600E-04, dE(actual):    -0.42468E-04, Trust radius:    0.055672, all in a.u.
 
----------------------------------------------------------------------
Geometry Convergence after Step  16       (Hartree/Angstrom,Angstrom)
----------------------------------------------------------------------
current energy                               -6.21095634 Hartree
energy change                      -0.00004247     0.00029000    T
constrained gradient max            0.00104944     0.00010000    F
constrained gradient rms            0.00024303     0.00006667    F
gradient max                        0.00104944
gradient rms                        0.00024303
cart. step max                      0.02802432     0.01000000    F
cart. step rms                      0.01226899     0.00666667    F
 

--------
Geometry
--------
Formula: C9H14N2O4
Atoms
  Index Symbol   x (angstrom)   y (angstrom)   z (angstrom)
      1      C     1.90545968    -4.03358038     0.16237036
      2      N     1.49242603    -2.85248255    -0.59865059
      3      C     2.09585686    -1.64133571    -0.40565795
      4      O     3.13909844    -1.47778176     0.22984688
      5      C     1.50930047    -0.50098089    -1.20591179
      6      C     2.49923629     0.39428027    -1.88993653
      7      N     0.22790753    -0.27244770    -1.37614483
      8      C    -0.97485812    -0.77508446    -0.85773207
      9      C    -2.08292732    -0.32504081    -1.70202192
     10      C    -3.52908920    -0.62759865    -1.36132226
     11      O    -1.81699283     0.34374889    -2.73110954
     12      C    -0.99894004    -1.26790722     0.51060762
     13      O    -0.04103911    -1.25802039     1.28361192
     14      O    -2.23683293    -1.75743855     0.88145090
     15      C    -2.32208321    -2.19878200     2.26549900
     16      H     1.48665720    -4.92434037    -0.31421779
     17      H     1.56035635    -3.97380455     1.20353783
     18      H     2.99688158    -4.09755440     0.16218947
     19      H     0.56003731    -2.85464051    -1.00187228
     20      H     3.12776270     0.88010390    -1.13258780
     21      H     2.00125198     1.16011384    -2.49356516
     22      H     3.17537675    -0.19343034    -2.52505125
     23      H    -0.04712497     0.39554408    -2.13162670
     24      H    -3.69259897    -1.70777146    -1.27408789
     25      H    -3.80339919    -0.19117212    -0.39429313
     26      H    -4.15740442    -0.21320872    -2.15350779
     27      H    -3.35244861    -2.53811786     2.39069497
     28      H    -2.09764287    -1.37369710     2.94861921
     29      H    -1.61861738    -3.01754248     2.45001912

Total System Charge              0.00000

 *** GO1_GOStep17 ***

 Energy gradients wrt nuclear displacements
 ==========================================

     Atom      Cartesian (a.u./angstrom)
                 X         Y         Z
 ----------------------------------------
     1 C     0.000047  0.000068 -0.000226
     2 N     0.000059  0.000312  0.000586
     3 C     0.000394 -0.000309 -0.001325
     4 O    -0.000064 -0.000019  0.000512
     5 C     0.000031 -0.000358  0.001106
     6 C    -0.000461 -0.000171 -0.000365
     7 N     0.000385  0.001187 -0.001364
     8 C    -0.000732 -0.000275  0.000590
     9 C     0.000353 -0.001359 -0.000655
    10 C    -0.000327  0.001003  0.000656
    11 O     0.000267  0.000553  0.000177
    12 C    -0.000128  0.000099  0.000119
    13 O     0.000315 -0.000034  0.000074
    14 O    -0.000065 -0.000100 -0.000438
    15 C    -0.000018  0.000316  0.000466
    16 H    -0.000049 -0.000049 -0.000004
    17 H    -0.000023 -0.000084  0.000022
    18 H    -0.000000 -0.000057 -0.000021
    19 H    -0.000067  0.000032  0.000016
    20 H    -0.000060 -0.000172  0.000094
    21 H     0.000023  0.000121  0.000137
    22 H    -0.000106  0.000106 -0.000055
    23 H     0.000106 -0.000006  0.000324
    24 H     0.000046 -0.000189 -0.000103
    25 H    -0.000068 -0.000246 -0.000086
    26 H     0.000120 -0.000045  0.000031
    27 H     0.000013 -0.000039 -0.000078
    28 H     0.000007 -0.000191 -0.000034
    29 H     0.000000 -0.000093 -0.000157
 ----------------------------------------

 dE(predicted):    -0.15445E-04, dE(actual):    -0.37151E-04, Trust radius:    0.111345, all in a.u.
 
----------------------------------------------------------------------
Geometry Convergence after Step  17       (Hartree/Angstrom,Angstrom)
----------------------------------------------------------------------
current energy                               -6.21099350 Hartree
energy change                      -0.00003715     0.00029000    T
constrained gradient max            0.00138646     0.00010000    F
constrained gradient rms            0.00040576     0.00006667    F
gradient max                        0.00138646
gradient rms                        0.00040576
cart. step max                      0.01443705     0.01000000    F
cart. step rms                      0.00425965     0.00666667    T
 

--------
Geometry
--------
Formula: C9H14N2O4
Atoms
  Index Symbol   x (angstrom)   y (angstrom)   z (angstrom)
      1      C     1.90406780    -4.03354710     0.15919925
      2      N     1.49074826    -2.85099068    -0.59897093
      3      C     2.09284966    -1.63980030    -0.40237291
      4      O     3.13704084    -1.47728943     0.23173902
      5      C     1.50886233    -0.50005095    -1.20499751
      6      C     2.50158409     0.39176958    -1.88993606
      7      N     0.22738971    -0.27034291    -1.37439837
      8      C    -0.97589065    -0.77165853    -0.85595347
      9      C    -2.08403906    -0.32175247    -1.70004290
     10      C    -3.52999478    -0.62685935    -1.36102510
     11      O    -1.81774258     0.34261373    -2.73175284
     12      C    -0.99936473    -1.26616309     0.51159102
     13      O    -0.04102282    -1.25694019     1.28385083
     14      O    -2.23671406    -1.75674183     0.88307192
     15      C    -2.32016276    -2.20028549     2.26654240
     16      H     1.48863672    -4.92371908    -0.32145519
     17      H     1.55600953    -3.97801459     1.19963475
     18      H     2.99564181    -4.09503012     0.16192472
     19      H     0.55976208    -2.85349956    -1.00537807
     20      H     3.12027951     0.89087223    -1.13287580
     21      H     2.00561033     1.14750590    -2.50784866
     22      H     3.18695432    -0.20037729    -2.51061420
     23      H    -0.04724144     0.39586691    -2.13162321
     24      H    -3.69050740    -1.70669017    -1.26524446
     25      H    -3.80786139    -0.18323865    -0.39820506
     26      H    -4.15762464    -0.22044965    -2.15785914
     27      H    -3.34869539    -2.54545886     2.39091439
     28      H    -2.10080934    -1.37452050     2.95051013
     29      H    -1.61215595    -3.01517752     2.45072546

Total System Charge              0.00000

 *** GO1_GOStep18 ***

 Energy gradients wrt nuclear displacements
 ==========================================

     Atom      Cartesian (a.u./angstrom)
                 X         Y         Z
 ----------------------------------------
     1 C     0.000028  0.000244 -0.000341
     2 N     0.000287  0.000381  0.000386
     3 C    -0.000577 -0.000193 -0.000062
     4 O     0.000134 -0.000069 -0.000130
     5 C     0.000374 -0.000217  0.000437
     6 C     0.000122 -0.000228 -0.000349
     7 N     0.000110  0.000813 -0.000506
     8 C    -0.000806 -0.000489  0.000173
     9 C     0.000060  0.000108  0.000243
    10 C    -0.000300  0.000600  0.000254
    11 O     0.000289 -0.000165  0.000067
    12 C     0.000170  0.000013 -0.000050
    13 O     0.000029  0.000000 -0.000216
    14 O    -0.000012 -0.000126 -0.000265
    15 C     0.000008  0.000233  0.000489
    16 H    -0.000057 -0.000051 -0.000033
    17 H    -0.000019 -0.000052  0.000029
    18 H    -0.000011 -0.000059 -0.000020
    19 H    -0.000010  0.000025 -0.000131
    20 H     0.000020 -0.000038  0.000089
    21 H     0.000043  0.000052  0.000131
    22 H    -0.000047  0.000148 -0.000005
    23 H     0.000060 -0.000072  0.000252
    24 H    -0.000047 -0.000211 -0.000053
    25 H     0.000044 -0.000204 -0.000129
    26 H     0.000126 -0.000098 -0.000005
    27 H    -0.000005 -0.000068 -0.000054
    28 H    -0.000003 -0.000178 -0.000079
    29 H    -0.000007 -0.000098 -0.000122
 ----------------------------------------

 dE(predicted):    -0.96085E-05, dE(actual):    -0.24010E-05, Trust radius:    0.111345, all in a.u.
 
----------------------------------------------------------------------
Geometry Convergence after Step  18       (Hartree/Angstrom,Angstrom)
----------------------------------------------------------------------
current energy                               -6.21099590 Hartree
energy change                      -0.00000240     0.00029000    T
constrained gradient max            0.00080682     0.00010000    F
constrained gradient rms            0.00023658     0.00006667    F
[...]
         ----                  ---------
     1)   C                  14.74632517
     2)   N                  18.37383128
     3)   C                  14.67674293
     4)   O                  22.42445108
     5)   C                  14.69986771
     6)   C                  14.75973714
     7)   N                  18.32070657
     8)   C                  14.74091429
     9)   C                  14.70672764
    10)   C                  14.78979964
    11)   O                  22.42237377
    12)   C                  14.66457939
    13)   O                  22.41929922
    14)   O                  22.35706541
    15)   C                  14.73067627
    16)   H                   1.09425642
    17)   H                   1.10420563
    18)   H                   1.10148219
    19)   H                   1.00393585
    20)   H                   1.08357973
    21)   H                   1.08344338
    22)   H                   1.08401771
    23)   H                   0.98327064
    24)   H                   1.10484703
    25)   H                   1.10359346
    26)   H                   1.11529632
    27)   H                   1.09699214
    28)   H                   1.10106390
    29)   H                   1.10069632
 Mulliken charges used for AMS results%charges...


    =====================
     CALCULATION RESULTS
    =====================

Energy (hartree)            -6.21101716

Gradients (hartree/bohr)
  Index   Atom            d/dx            d/dy            d/dz
      1      C   -0.0000105970    0.0000182346   -0.0000529220
      2      N   -0.0000457144   -0.0000048009    0.0000245017
      3      C    0.0000414211   -0.0000152930   -0.0000243760
      4      O   -0.0000135374   -0.0000073417    0.0000093491
      5      C   -0.0000134352    0.0000208270   -0.0000102705
      6      C    0.0000085442    0.0000352528    0.0000320228
      7      N   -0.0000464985    0.0000072816    0.0000260702
      8      C    0.0000086978    0.0000039685   -0.0000054731
      9      C    0.0000193306   -0.0000009078    0.0000126435
     10      C   -0.0000032481   -0.0000076740   -0.0000006211
     11      O   -0.0000002584    0.0000321381    0.0000262234
     12      C    0.0000117755   -0.0000112811    0.0000037180
     13      O    0.0000050922   -0.0000153984   -0.0000085240
     14      O   -0.0000020779   -0.0000085505    0.0000074017
     15      C    0.0000055528   -0.0000328355   -0.0000102541
     16      H   -0.0000109970   -0.0000005839   -0.0000308840
     17      H    0.0000098267   -0.0000173266   -0.0000242480
     18      H    0.0000070752   -0.0000205612   -0.0000361264
     19      H    0.0000180152   -0.0000032621   -0.0000345644
     20      H   -0.0000008296   -0.0000037129    0.0000110642
     21      H    0.0000010080    0.0000127512    0.0000211819
     22      H    0.0000046692    0.0000126352   -0.0000034625
     23      H    0.0000061854    0.0000138371    0.0000292313
     24      H   -0.0000015224    0.0000247798    0.0000074093
     25      H   -0.0000026904    0.0000130219    0.0000230031
     26      H   -0.0000065987    0.0000275131    0.0000207187
     27      H    0.0000029501   -0.0000221918   -0.0000080253
     28      H    0.0000047400   -0.0000289192    0.0000086733
     29      H    0.0000031209   -0.0000216005   -0.0000134610


--------------
Atomic charges
--------------
  Index   Atom    Charge
      1      C    0.7889
      2      N   -0.1385
      3      C    0.6156
      4      O   -0.5690
      5      C    0.1097
      6      C    0.6356
      7      N    0.0652
      8      C   -0.1300
      9      C    0.4380
     10      C    0.6220
     11      O   -0.5844
     12      C    0.6940
     13      O   -0.5914
     14      O   -0.5664
     15      C    0.9900
     16      H   -0.2303
     17      H   -0.1734
     18      H   -0.1734
     19      H   -0.0319
     20      H   -0.1420
     21      H   -0.2304
     22      H   -0.1743
     23      H   -0.0146
     24      H   -0.1814
     25      H   -0.1767
     26      H   -0.2227
     27      H   -0.2457
     28      H   -0.1909
     29      H   -0.1917


Dipole moment vector    (Debye):    -1.25101344   -2.15116605   -0.30151043
              magnitude (Debye):     2.50668277


-----------------------
Molecular orbitals info
-----------------------
n orbitals:              544
n spin:                    1

Note: only printing virtual orbitals with
      energy smaller than HOMO + 100. eV

HOMO (eV):              -5.3826
LUMO (eV):              -3.0332
HOMO-LUMO gap (eV):      2.3493

   Index   Energy (eV)    Occupation
     346       94.5464         0.000       
     345       94.4694         0.000       
     344       94.2781         0.000       
     343       94.0658         0.000       
     342       93.9222         0.000       
     341       93.7477         0.000       
     340       93.4672         0.000       
     339       93.1342         0.000       
     338       92.8456         0.000       
     337       92.4591         0.000       
     336       92.2651         0.000       
     335       92.1263         0.000       
     334       91.7493         0.000       
     333       91.5676         0.000       
     332       90.9803         0.000       
     331       90.4931         0.000       
     330       89.9243         0.000       
     329       89.8736         0.000       
     328       89.6832         0.000       
     327       89.2077         0.000       
     326       88.3121         0.000       
     325       87.7755         0.000       
     324       86.3287         0.000       
     323       85.8810         0.000       
     322       85.0627         0.000       
     321       84.7214         0.000       
     320       84.3377         0.000       
     319       83.8602         0.000       
     318       82.7354         0.000       
     317       82.5791         0.000       
     316       82.3770         0.000       
     315       82.1737         0.000       
     314       81.5744         0.000       
     313       81.4578         0.000       
     312       80.8437         0.000       
     311       80.5007         0.000       
     310       80.1100         0.000       
     309       79.8426         0.000       
     308       79.3645         0.000       
     307       78.8294         0.000       
     306       78.7510         0.000       
     305       78.5596         0.000       
     304       78.4673         0.000       
     303       78.2250         0.000       
     302       77.9107         0.000       
     301       77.6607         0.000       
     300       77.4513         0.000       
     299       77.1274         0.000       
     298       76.9146         0.000       
     297       76.6237         0.000       
     296       76.5268         0.000       
     295       76.5027         0.000       
     294       75.9973         0.000       
     293       75.8783         0.000       
     292       75.4568         0.000       
     291       75.2140         0.000       
     290       74.7322         0.000       
     289       74.4024         0.000       
     288       74.1402         0.000       
     287       73.3793         0.000       
     286       73.0035         0.000       
     285       72.4459         0.000       
     284       70.9390         0.000       
     283       70.3258         0.000       
     282       69.6551         0.000       
     281       69.1811         0.000       
     280       68.6819         0.000       
     279       68.1141         0.000       
     278       66.7540         0.000       
     277       66.5465         0.000       
     276       66.2927         0.000       
     275       65.9746         0.000       
     274       65.1532         0.000       
     273       64.5292         0.000       
     272       64.0325         0.000       
     271       63.4168         0.000       
     270       62.7968         0.000       
     269       62.5378         0.000       
     268       62.2940         0.000       
     267       62.1091         0.000       
     266       61.8763         0.000       
     265       61.2502         0.000       
     264       60.4268         0.000       
     263       59.5848         0.000       
     262       59.0141         0.000       
     261       58.7254         0.000       
     260       58.5113         0.000       
     259       57.8636         0.000       
     258       57.3023         0.000       
     257       57.2764         0.000       
     256       57.0075         0.000       
     255       56.6057         0.000       
     254       56.4586         0.000       
     253       55.6481         0.000       
     252       55.6082         0.000       
     251       55.0421         0.000       
     250       54.9681         0.000       
     249       54.2524         0.000       
     248       53.5817         0.000       
     247       53.5012         0.000       
     246       52.9805         0.000       
     245       52.7294         0.000       
     244       52.4210         0.000       
     243       52.1287         0.000       
     242       51.8128         0.000       
     241       51.3189         0.000       
     240       51.1677         0.000       
     239       50.5698         0.000       
     238       50.2544         0.000       
     237       49.8021         0.000       
     236       49.2918         0.000       
     235       48.8465         0.000       
     234       48.6213         0.000       
     233       48.3678         0.000       
     232       48.0883         0.000       
     231       47.5748         0.000       
     230       47.5368         0.000       
     229       46.9906         0.000       
     228       46.4472         0.000       
     227       45.9726         0.000       
     226       45.5925         0.000       
     225       45.4175         0.000       
     224       45.2973         0.000       
     223       44.8499         0.000       
     222       44.1858         0.000       
     221       43.9830         0.000       
     220       43.7386         0.000       
     219       43.5238         0.000       
     218       43.1576         0.000       
     217       42.2458         0.000       
     216       42.0399         0.000       
     215       41.6661         0.000       
     214       41.0003         0.000       
     213       40.7362         0.000       
     212       40.1453         0.000       
     211       39.6199         0.000       
     210       39.4989         0.000       
     209       39.2417         0.000       
     208       39.0693         0.000       
     207       38.5030         0.000       
     206       38.2458         0.000       
     205       37.8929         0.000       
     204       37.4610         0.000       
     203       37.2638         0.000       
     202       37.1276         0.000       
     201       36.7604         0.000       
     200       36.3471         0.000       
     199       36.0125         0.000       
     198       35.7768         0.000       
     197       35.5477         0.000       
     196       35.2352         0.000       
     195       34.6883         0.000       
     194       34.3757         0.000       
     193       34.1162         0.000       
     192       33.5226         0.000       
     191       33.2119         0.000       
     190       33.0236         0.000       
     189       32.4996         0.000       
     188       32.2873         0.000       
     187       31.7426         0.000       
     186       31.5224         0.000       
     185       30.9928         0.000       
     184       30.8009         0.000       
     183       30.4371         0.000       
     182       30.2650         0.000       
     181       30.1003         0.000       
     180       29.9105         0.000       
     179       29.7507         0.000       
     178       29.0795         0.000       
     177       28.9073         0.000       
     176       28.8890         0.000       
     175       28.7027         0.000       
     174       28.5964         0.000       
     173       28.1697         0.000       
     172       27.8821         0.000       
     171       27.7620         0.000       
     170       27.2359         0.000       
     169       27.0758         0.000       
     168       26.8398         0.000       
     167       26.6554         0.000       
     166       26.3551         0.000       
     165       26.2489         0.000       
     164       25.9600         0.000       
     163       25.4763         0.000       
     162       25.3572         0.000       
     161       24.8314         0.000       
     160       24.7348         0.000       
     159       24.5788         0.000       
     158       24.2442         0.000       
     157       23.7894         0.000       
     156       23.2307         0.000       
     155       22.9528         0.000       
     154       22.5730         0.000       
     153       22.3742         0.000       
     152       22.0812         0.000       
     151       21.8625         0.000       
     150       21.4043         0.000       
     149       20.8749         0.000       
     148       20.6411         0.000       
     147       19.7740         0.000       
     146       19.3504         0.000       
     145       18.9247         0.000       
     144       18.5922         0.000       
     143       18.3770         0.000       
     142       17.7974         0.000       
     141       17.5183         0.000       
     140       17.1330         0.000       
     139       16.7012         0.000       
     138       16.2826         0.000       
     137       16.2180         0.000       
     136       15.7536         0.000       
     135       15.5035         0.000       
     134       14.7106         0.000       
     133       14.4917         0.000       
     132       14.1975         0.000       
     131       14.0854         0.000       
     130       13.6093         0.000       
     129       13.3712         0.000       
     128       13.2513         0.000       
     127       12.8582         0.000       
     126       12.4318         0.000       
     125       12.2897         0.000       
     124       11.9958         0.000       
     123       11.7779         0.000       
     122       11.7228         0.000       
     121       11.5475         0.000       
     120       11.3803         0.000       
     119       11.3285         0.000       
     118       10.8924         0.000       
     117       10.8758         0.000       
     116       10.6046         0.000       
     115       10.3013         0.000       
     114       10.2186         0.000       
     113       10.0187         0.000       
     112        9.8871         0.000       
     111        9.7310         0.000       
     110        9.6713         0.000       
     109        9.4555         0.000       
     108        9.1119         0.000       
     107        8.8842         0.000       
     106        8.5898         0.000       
     105        8.5840         0.000       
     104        8.2249         0.000       
     103        8.0991         0.000       
     102        7.8980         0.000       
     101        7.6644         0.000       
     100        7.5929         0.000       
      99        7.1478         0.000       
      98        6.8937         0.000       
      97        6.8053         0.000       
      96        6.6346         0.000       
      95        6.4073         0.000       
      94        6.0662         0.000       
      93        5.8935         0.000       
      92        5.6233         0.000       
      91        5.5396         0.000       
      90        5.0904         0.000       
      89        4.9087         0.000       
      88        4.8826         0.000       
      87        4.6958         0.000       
      86        4.4907         0.000       
      85        4.4586         0.000       
      84        4.3126         0.000       
      83        4.1286         0.000       
      82        4.0857         0.000       
      81        3.7729         0.000       
      80        3.4527         0.000       
      79        3.3811         0.000       
      78        2.8766         0.000       
      77        2.6536         0.000       
      76        2.4695         0.000       
      75        2.1654         0.000       
      74        1.9633         0.000       
      73        1.8709         0.000       
      72        1.6948         0.000       
      71        1.3973         0.000       
      70        1.2921         0.000       
      69        1.1799         0.000       
      68        1.1039         0.000       
      67        0.9762         0.000       
      66        0.7111         0.000       
      65        0.6059         0.000       
      64        0.1584         0.000       
      63        0.0230         0.000       
      62       -0.1764         0.000       
      61       -0.2650         0.000       
      60       -0.6807         0.000       
      59       -1.4603         0.000       
      58       -3.0332         0.000 < LUMO
      57       -5.3826         2.000 < HOMO
      56       -5.8698         2.000       
      55       -6.2206         2.000       
      54       -6.3455         2.000       
      53       -6.6844         2.000       
      52       -7.2336         2.000       
      51       -8.3875         2.000       
      50       -8.5006         2.000       
      49       -9.0674         2.000       
      48       -9.3977         2.000       
      47       -9.5399         2.000       
      46       -9.7469         2.000       
      45       -9.8692         2.000       
      44       -9.9027         2.000       
      43       -9.9598         2.000       
      42      -10.3530         2.000       
      41      -10.5101         2.000       
      40      -10.6433         2.000       
      39      -10.7139         2.000       
      38      -10.9332         2.000       
      37      -11.0583         2.000       
      36      -11.4871         2.000       
      35      -11.6122         2.000       
      34      -11.6986         2.000       
      33      -12.0714         2.000       
      32      -12.6847         2.000       
      31      -13.5606         2.000       
      30      -14.2772         2.000       
      29      -14.3692         2.000       
      28      -15.0477         2.000       
      27      -16.1868         2.000       
      26      -17.3977         2.000       
      25      -17.9494         2.000       
      24      -18.0080         2.000       
      23      -18.8303         2.000       
      22      -20.1672         2.000       
      21      -23.1441         2.000       
      20      -24.6386         2.000       
      19      -25.1157         2.000       
      18      -25.7320         2.000       
      17      -26.0608         2.000       
      16      -27.2651         2.000       
      15     -269.9152         2.000       
      14     -270.7023         2.000       
      13     -271.0374         2.000       
      12     -271.2213         2.000       
      11     -271.4920         2.000       
      10     -272.2723         2.000       
       9     -272.4328         2.000       
       8     -273.0395         2.000       
       7     -273.3675         2.000       
       6     -382.6262         2.000       
       5     -384.1427         2.000       
       4     -510.8353         2.000       
       3     -510.8841         2.000       
       2     -510.9695         2.000       
       1     -512.5920         2.000       

AMS application finished. Exiting.
NORMAL TERMINATION
     Total cpu time:    2848.15
  Total system time:       9.17
 Total elapsed time:    2875.18
NORMAL TERMINATION
