
 *******************************************************************************
 *                                                                             *
 *  --------------------------------                                           *
 *   Amsterdam Modeling Suite (AMS)              2026.103                      *
 *  --------------------------------                                           *
 *                                               r260501 2026-05-01 873454b5   *
 *                                                                             *
 *                                                                             *
 *                              =================                              *
 *                              |               |                              *
 *                              |     A M S     |                              *
 *                              |               |                              *
 *                              =================                              *
 *                                                                             *
 *                                                                             *
 *   Online information and documentation:  https://www.scm.com/support/       *
 *   E-mail:  support@scm.com   info@scm.com                                   *
 *                                                                             *
 *   Scientific publications using AMS results must be properly referenced     *
 *   See the User Manuals (or the web site) for recommended citations          *
 *   The terms and conditions of the End User License Agreement apply to       *
 *   the use of AMS, https://www.scm.com/license-terms/                        *
 *                                                                             *
 **********************  x86_64_linux_intel / intelmpi  ************************
 
 Licensed to: Jong-June Jeon / University of Seoul 2026-05-13 16:10:32
 SCM User ID: u30731
  
 AMS 2026.103  RunTime: May31-2026 20:47:02  ShM Nodes: 1  Procs: 1

 AMS jobname: c3_eda
 AMS jobid  : 1154836245

 Start   directory: /gpfs/home1/yeseo1ee/projects/eda-asm-prediction/adf_outputs/batch_001/dipolar_002054/
 Results directory: /gpfs/home1/yeseo1ee/projects/eda-asm-prediction/adf_outputs/batch_001/dipolar_002054/c3_eda.results/
 Scratch directory: /tmp/amstmp_c3_eda_kid0.1154836245/

 RNG seed: -114241606 739366336 2068963930 -1263211347 -598582387 -1118720381 738340091 1284080669



                      ************************************************************************
                      *  ADF 2026.103  RunTime: May31-2026 20:47:02  ShM Nodes: 1  Procs: 1  *
                      ************************************************************************
  

       ****************************
       * SINGLE POINT CALCULATION *
       ****************************

--------
Geometry
--------
Formula: C20H25N3O6
Atoms
  Index Symbol   x (angstrom)   y (angstrom)   z (angstrom)
      1      C    -2.26526000     3.67015000     1.06717000 adf.f=fA
      2      N    -1.86060000     2.77448000     0.00032000 adf.f=fA
      3      C    -1.27585000     1.59319000     0.27910000 adf.f=fA
      4      O    -1.21661000     1.15313000     1.42703000 adf.f=fA
      5      C    -0.77253000     0.87236000    -0.98134000 adf.f=fA
      6      C    -1.78257000     0.83143000    -2.09271000 adf.f=fA
      7      C     1.51733000     0.75176000    -0.31042000 adf.f=fA
      8      C     1.45951000     1.76963000     0.80394000 adf.f=fA
      9      O     1.14290000     2.94061000     0.54156000 adf.f=fA
     10      N     1.78762000     1.37155000     2.03907000 adf.f=fA
     11      C     1.67011000     2.26725000     3.16990000 adf.f=fA
     12      C     2.81721000     0.10484000    -0.52825000 adf.f=fA
     13      O     3.77336000     0.25199000     0.22423000 adf.f=fA
     14      O     2.85779000    -0.75500000    -1.55833000 adf.f=fA
     15      C     4.08837000    -1.45673000    -1.76783000 adf.f=fA
     16      N     0.55103000     0.85063000    -1.29051000 adf.f=fA
     17      C     0.89701000     0.65056000    -2.71254000 adf.f=fA
     18      H    -2.93160000     3.15392000     1.77258000 adf.f=fA
     19      H    -2.79864000     4.52417000     0.63188000 adf.f=fA
     20      H    -1.38883000     4.03894000     1.62612000 adf.f=fA
     21      H    -1.77981000     3.15371000    -0.93729000 adf.f=fA
     22      H    -2.78506000     0.70400000    -1.66731000 adf.f=fA
     23      H    -1.59659000    -0.00377000    -2.77902000 adf.f=fA
     24      H    -1.78212000     1.76461000    -2.68397000 adf.f=fA
     25      H     1.89780000     0.37370000     2.20844000 adf.f=fA
     26      H     2.20878000     3.20794000     2.98338000 adf.f=fA
     27      H     0.61426000     2.51419000     3.37693000 adf.f=fA
     28      H     2.09991000     1.78282000     4.05595000 adf.f=fA
     29      H     4.32677000    -2.08392000    -0.89821000 adf.f=fA
     30      H     4.91238000    -0.75213000    -1.95120000 adf.f=fA
     31      H     3.92573000    -2.08495000    -2.65153000 adf.f=fA
     32      H     0.28497000     1.32976000    -3.31566000 adf.f=fA
     33      H     0.71617000    -0.38628000    -3.02444000 adf.f=fA
     34      H     1.94575000     0.90497000    -2.86637000 adf.f=fA
     35      C    -0.73361000    -1.21500000    -0.04877000 adf.f=fB
     36      C    -2.06298000    -1.67204000    -0.35947000 adf.f=fB
     37      C    -2.27927000    -2.46316000    -1.50563000 adf.f=fB
     38      C    -3.56685000    -2.88894000    -1.83311000 adf.f=fB
     39      C    -4.65461000    -2.53274000    -1.02883000 adf.f=fB
     40      C    -4.44580000    -1.74799000     0.11102000 adf.f=fB
     41      C    -3.16320000    -1.31386000     0.44559000 adf.f=fB
     42      C     0.42069000    -1.31561000     0.41389000 adf.f=fB
     43      C     1.52026000    -2.02202000     1.01101000 adf.f=fB
     44      O     2.14086000    -2.92341000     0.47244000 adf.f=fB
     45      O     1.83293000    -1.55670000     2.23954000 adf.f=fB
     46      C     2.99587000    -2.12145000     2.86749000 adf.f=fB
     47      H    -1.42970000    -2.73448000    -2.13511000 adf.f=fB
     48      H    -3.72171000    -3.50196000    -2.72412000 adf.f=fB
     49      H    -5.66202000    -2.86526000    -1.28921000 adf.f=fB
     50      H    -5.29073000    -1.46861000     0.74491000 adf.f=fB
     51      H    -2.99968000    -0.69209000     1.32587000 adf.f=fB
     52      H     3.88979000    -1.91207000     2.26321000 adf.f=fB
     53      H     2.87671000    -3.20624000     2.99518000 adf.f=fB
     54      H     3.07415000    -1.62979000     3.84390000 adf.f=fB

Total System Charge              0.00000


----------------
ADF Engine Input
----------------
 
   Basis
     Type TZ2P
     Core None
   End
   XC
     GGA BLYP
     Dispersion GRIMME3 BJDAMP
   End
   Symmetry NOSYM
   NumericalQuality Normal
   Unrestricted No
   SCF
     Iterations 200
     Converge 1.0e-6
   End
   fragments
     fA c1_fragA_ts.results/adf.rkf
     fB c2_fragB_ts.results/adf.rkf
   end
   etsnocv
     enocv 0.05
     ekmin 0.5
   end
   print etslowdin
   Save TAPE21
 

 Title: *** (NO TITLE) ***

 *** adf ***



 ===========================
 A T T A C H E D   F I L E S
 ===========================
  



 ===============================
 M O D E L   P A R A M E T E R S
 ===============================
  
 DENSITY FUNCTIONAL POTENTIAL (scf)
    LDA:                               Exchange only                           == Not Default ==
    Gradient Corrections:              Becke88 LYP                             == Not Default ==

 SPIN  (restricted / unrestr.)
    Molecule:                          Restricted                               
    Fragments:                         Restricted                               

 OTHER ASPECTS
    Relativistic Corrections:          scalar (ZORA,MAPA)                       

    Nuclear Charge Density Model:      Point Charge Nuclei                      
    Core Treatment:                    Frozen Orbital(s)                        

    Hyperfine or Zeeman Interaction:   ---                                      

 Settings for Grimme D3 dispersion correction

      damping                        BJ
      s6                          1.000
      s8                          2.700
      a1                          0.430
      a2                          4.236

 Other (technical) parameters

      alpha                      14.000
      version                         4
 


 Fragment File(s)
 ----------------
 fA:
         file : c1_fragA_ts.results/adf.rkf
         jobid: 1194108226
         title: *** adf ***
 fB:
         file : c2_fragB_ts.results/adf.rkf
         jobid: 2009683964
         title: *** adf ***



 ===============
 G E O M E T R Y  ***  3D  Molecule  ***
 ===============
  

 ATOMS
 =====                            X Y Z                    CHARGE
                                (Angstrom)             Nucl     +Core       At.Mass
                       --------------------------    ----------------       -------
    1  C              -2.2653    3.6702    1.0672      6.00      6.00       12.0000
    2  N              -1.8606    2.7745    0.0003      7.00      7.00       14.0031
    3  C              -1.2758    1.5932    0.2791      6.00      6.00       12.0000
    4  O              -1.2166    1.1531    1.4270      8.00      8.00       15.9949
    5  C              -0.7725    0.8724   -0.9813      6.00      6.00       12.0000
    6  C              -1.7826    0.8314   -2.0927      6.00      6.00       12.0000
    7  C               1.5173    0.7518   -0.3104      6.00      6.00       12.0000
    8  C               1.4595    1.7696    0.8039      6.00      6.00       12.0000
    9  O               1.1429    2.9406    0.5416      8.00      8.00       15.9949
   10  N               1.7876    1.3716    2.0391      7.00      7.00       14.0031
   11  C               1.6701    2.2673    3.1699      6.00      6.00       12.0000
   12  C               2.8172    0.1048   -0.5282      6.00      6.00       12.0000
   13  O               3.7734    0.2520    0.2242      8.00      8.00       15.9949
   14  O               2.8578   -0.7550   -1.5583      8.00      8.00       15.9949
   15  C               4.0884   -1.4567   -1.7678      6.00      6.00       12.0000
   16  N               0.5510    0.8506   -1.2905      7.00      7.00       14.0031
   17  C               0.8970    0.6506   -2.7125      6.00      6.00       12.0000
   18  H              -2.9316    3.1539    1.7726      1.00      1.00        1.0078
   19  H              -2.7986    4.5242    0.6319      1.00      1.00        1.0078
   20  H              -1.3888    4.0389    1.6261      1.00      1.00        1.0078
   21  H              -1.7798    3.1537   -0.9373      1.00      1.00        1.0078
   22  H              -2.7851    0.7040   -1.6673      1.00      1.00        1.0078
   23  H              -1.5966   -0.0038   -2.7790      1.00      1.00        1.0078
   24  H              -1.7821    1.7646   -2.6840      1.00      1.00        1.0078
   25  H               1.8978    0.3737    2.2084      1.00      1.00        1.0078
   26  H               2.2088    3.2079    2.9834      1.00      1.00        1.0078
   27  H               0.6143    2.5142    3.3769      1.00      1.00        1.0078
   28  H               2.0999    1.7828    4.0560      1.00      1.00        1.0078
   29  H               4.3268   -2.0839   -0.8982      1.00      1.00        1.0078
   30  H               4.9124   -0.7521   -1.9512      1.00      1.00        1.0078
   31  H               3.9257   -2.0850   -2.6515      1.00      1.00        1.0078
   32  H               0.2850    1.3298   -3.3157      1.00      1.00        1.0078
   33  H               0.7162   -0.3863   -3.0244      1.00      1.00        1.0078
   34  H               1.9458    0.9050   -2.8664      1.00      1.00        1.0078
   35  C              -0.7336   -1.2150   -0.0488      6.00      6.00       12.0000
   36  C              -2.0630   -1.6720   -0.3595      6.00      6.00       12.0000
   37  C              -2.2793   -2.4632   -1.5056      6.00      6.00       12.0000
   38  C              -3.5669   -2.8889   -1.8331      6.00      6.00       12.0000
   39  C              -4.6546   -2.5327   -1.0288      6.00      6.00       12.0000
   40  C              -4.4458   -1.7480    0.1110      6.00      6.00       12.0000
   41  C              -3.1632   -1.3139    0.4456      6.00      6.00       12.0000
   42  C               0.4207   -1.3156    0.4139      6.00      6.00       12.0000
   43  C               1.5203   -2.0220    1.0110      6.00      6.00       12.0000
   44  O               2.1409   -2.9234    0.4724      8.00      8.00       15.9949
   45  O               1.8329   -1.5567    2.2395      8.00      8.00       15.9949
   46  C               2.9959   -2.1214    2.8675      6.00      6.00       12.0000
   47  H              -1.4297   -2.7345   -2.1351      1.00      1.00        1.0078
   48  H              -3.7217   -3.5020   -2.7241      1.00      1.00        1.0078
   49  H              -5.6620   -2.8653   -1.2892      1.00      1.00        1.0078
   50  H              -5.2907   -1.4686    0.7449      1.00      1.00        1.0078
   51  H              -2.9997   -0.6921    1.3259      1.00      1.00        1.0078
   52  H               3.8898   -1.9121    2.2632      1.00      1.00        1.0078
   53  H               2.8767   -3.2062    2.9952      1.00      1.00        1.0078
   54  H               3.0741   -1.6298    3.8439      1.00      1.00        1.0078


 FRAGMENTS
 =========                                     Atoms in this Fragment     Cart. coord.s (Angstrom)
                                               -------------------------------------------------------
    1  fA                                                1  C           -2.2653    3.6702    1.0672
                                                         3  C           -1.2758    1.5932    0.2791
                                                         5  C           -0.7725    0.8724   -0.9813
                                                         6  C           -1.7826    0.8314   -2.0927
                                                         7  C            1.5173    0.7518   -0.3104
                                                         8  C            1.4595    1.7696    0.8039
                                                        11  C            1.6701    2.2673    3.1699
                                                        12  C            2.8172    0.1048   -0.5282
                                                        15  C            4.0884   -1.4567   -1.7678
                                                        17  C            0.8970    0.6506   -2.7125
                                                         2  N           -1.8606    2.7745    0.0003
                                                        10  N            1.7876    1.3716    2.0391
                                                        16  N            0.5510    0.8506   -1.2905
                                                         4  O           -1.2166    1.1531    1.4270
                                                         9  O            1.1429    2.9406    0.5416
                                                        13  O            3.7734    0.2520    0.2242
                                                        14  O            2.8578   -0.7550   -1.5583
                                                        18  H           -2.9316    3.1539    1.7726
                                                        19  H           -2.7986    4.5242    0.6319
                                                        20  H           -1.3888    4.0389    1.6261
                                                        21  H           -1.7798    3.1537   -0.9373
                                                        22  H           -2.7851    0.7040   -1.6673
                                                        23  H           -1.5966   -0.0038   -2.7790
                                                        24  H           -1.7821    1.7646   -2.6840
                                                        25  H            1.8978    0.3737    2.2084
                                                        26  H            2.2088    3.2079    2.9834
                                                        27  H            0.6143    2.5142    3.3769
                                                        28  H            2.0999    1.7828    4.0560
                                                        29  H            4.3268   -2.0839   -0.8982
                                                        30  H            4.9124   -0.7521   -1.9512
                                                        31  H            3.9257   -2.0850   -2.6515
                                                        32  H            0.2850    1.3298   -3.3157
                                                        33  H            0.7162   -0.3863   -3.0244
                                                        34  H            1.9458    0.9050   -2.8664
    2  fB                                               35  C           -0.7336   -1.2150   -0.0488
                                                        36  C           -2.0630   -1.6720   -0.3595
                                                        37  C           -2.2793   -2.4632   -1.5056
                                                        38  C           -3.5669   -2.8889   -1.8331
                                                        39  C           -4.6546   -2.5327   -1.0288
                                                        40  C           -4.4458   -1.7480    0.1110
                                                        41  C           -3.1632   -1.3139    0.4456
                                                        42  C            0.4207   -1.3156    0.4139
                                                        43  C            1.5203   -2.0220    1.0110
                                                        46  C            2.9959   -2.1214    2.8675
                                                        44  O            2.1409   -2.9234    0.4724
                                                        45  O            1.8329   -1.5567    2.2395
                                                        47  H           -1.4297   -2.7345   -2.1351
                                                        48  H           -3.7217   -3.5020   -2.7241
                                                        49  H           -5.6620   -2.8653   -1.2892
                                                        50  H           -5.2907   -1.4686    0.7449
                                                        51  H           -2.9997   -0.6921    1.3259
                                                        52  H            3.8898   -1.9121    2.2632
                                                        53  H            2.8767   -3.2062    2.9952
                                                        54  H            3.0741   -1.6298    3.8439



 =====================================
 S Y M M E T R Y ,   E L E C T R O N S
 =====================================
  
 Symmetry: NOSYM

 Irreducible Representations, including subspecies
 -------------------------------------------------
 A


 Configuration of Valence Electrons
 ==================================
 ( determined in the SCF procedure )

 Total:   214

 Net Charge: 0 (Nuclei minus Electrons)

 Aufbau principle for MO occupations will be applied through SCF cycle no.     100
 Thereafter, the program will assign electrons to MOs that are spatially
 similar to the occupied MOs in a "reference" cycle ("KeepOrbitals").
 The reference cycle is always the PREVIOUS cycle: it will evolve with
 the SCF procedure.
 ***************************************************************************************************



                                      ****************************************
                                      *  B U I L D : (Fragments, Functions)  *
                                      ****************************************
  

 The individual fragments are copies of the corresponding 'Master' fragments defined on the fragment files.
 However, they may have been rotated (and translated) with respect to the Master. The local coordinate axes
 of each fragment (which define for instance the spatial orientation in the current molecule of a fragment
 P:x orbital) are not necessarily those of the molecule.
 The local frame (if different from the molecular one) is printed to enable an interpretation of the expan-
 sion of an MO in Fragment Orbitals.



                                              ************************
                                              *  Fragment Type : fA  *
                                              ************************
  

 Fragment no.    1   (in the list of all fragments)
 -----------------
 The local coordinate frame is identical to the molecular frame.

 Check Atomic Coordinates:

                  Master (on file)          After Computed Tranformation               As specified on Input
           ----------------------------     ----------------------------     ---------------------------------
     1)    -2.26526   3.67015   1.06717     -2.26526   3.67015   1.06717       1  -2.26526   3.67015   1.06717
     2)    -1.27585   1.59319   0.27910     -1.27585   1.59319   0.27910       3  -1.27585   1.59319   0.27910
     3)    -0.77253   0.87236  -0.98134     -0.77253   0.87236  -0.98134       5  -0.77253   0.87236  -0.98134
     4)    -1.78257   0.83143  -2.09271     -1.78257   0.83143  -2.09271       6  -1.78257   0.83143  -2.09271
     5)     1.51733   0.75176  -0.31042      1.51733   0.75176  -0.31042       7   1.51733   0.75176  -0.31042
     6)     1.45951   1.76963   0.80394      1.45951   1.76963   0.80394       8   1.45951   1.76963   0.80394
     7)     1.67011   2.26725   3.16990      1.67011   2.26725   3.16990      11   1.67011   2.26725   3.16990
     8)     2.81721   0.10484  -0.52825      2.81721   0.10484  -0.52825      12   2.81721   0.10484  -0.52825
     9)     4.08837  -1.45673  -1.76783      4.08837  -1.45673  -1.76783      15   4.08837  -1.45673  -1.76783
    10)     0.89701   0.65056  -2.71254      0.89701   0.65056  -2.71254      17   0.89701   0.65056  -2.71254
    11)    -1.86060   2.77448   0.00032     -1.86060   2.77448   0.00032       2  -1.86060   2.77448   0.00032
    12)     1.78762   1.37155   2.03907      1.78762   1.37155   2.03907      10   1.78762   1.37155   2.03907
    13)     0.55103   0.85063  -1.29051      0.55103   0.85063  -1.29051      16   0.55103   0.85063  -1.29051
    14)    -1.21661   1.15313   1.42703     -1.21661   1.15313   1.42703       4  -1.21661   1.15313   1.42703
    15)     1.14290   2.94061   0.54156      1.14290   2.94061   0.54156       9   1.14290   2.94061   0.54156
    16)     3.77336   0.25199   0.22423      3.77336   0.25199   0.22423      13   3.77336   0.25199   0.22423
    17)     2.85779  -0.75500  -1.55833      2.85779  -0.75500  -1.55833      14   2.85779  -0.75500  -1.55833
    18)    -2.93160   3.15392   1.77258     -2.93160   3.15392   1.77258      18  -2.93160   3.15392   1.77258
    19)    -2.79864   4.52417   0.63188     -2.79864   4.52417   0.63188      19  -2.79864   4.52417   0.63188
    20)    -1.38883   4.03894   1.62612     -1.38883   4.03894   1.62612      20  -1.38883   4.03894   1.62612
    21)    -1.77981   3.15371  -0.93729     -1.77981   3.15371  -0.93729      21  -1.77981   3.15371  -0.93729
    22)    -2.78506   0.70400  -1.66731     -2.78506   0.70400  -1.66731      22  -2.78506   0.70400  -1.66731
    23)    -1.59659  -0.00377  -2.77902     -1.59659  -0.00377  -2.77902      23  -1.59659  -0.00377  -2.77902
    24)    -1.78212   1.76461  -2.68397     -1.78212   1.76461  -2.68397      24  -1.78212   1.76461  -2.68397
    25)     1.89780   0.37370   2.20844      1.89780   0.37370   2.20844      25   1.89780   0.37370   2.20844
    26)     2.20878   3.20794   2.98338      2.20878   3.20794   2.98338      26   2.20878   3.20794   2.98338
    27)     0.61426   2.51419   3.37693      0.61426   2.51419   3.37693      27   0.61426   2.51419   3.37693
    28)     2.09991   1.78282   4.05595      2.09991   1.78282   4.05595      28   2.09991   1.78282   4.05595
    29)     4.32677  -2.08392  -0.89821      4.32677  -2.08392  -0.89821      29   4.32677  -2.08392  -0.89821
    30)     4.91238  -0.75213  -1.95120      4.91238  -0.75213  -1.95120      30   4.91238  -0.75213  -1.95120
    31)     3.92573  -2.08495  -2.65153      3.92573  -2.08495  -2.65153      31   3.92573  -2.08495  -2.65153
    32)     0.28497   1.32976  -3.31566      0.28497   1.32976  -3.31566      32   0.28497   1.32976  -3.31566
    33)     0.71617  -0.38628  -3.02444      0.71617  -0.38628  -3.02444      33   0.71617  -0.38628  -3.02444
    34)     1.94575   0.90497  -2.86637      1.94575   0.90497  -2.86637      34   1.94575   0.90497  -2.86637



                                              ************************
                                              *  Fragment Type : fB  *
                                              ************************
  

 Fragment no.    2   (in the list of all fragments)
 -----------------
 The local coordinate frame is identical to the molecular frame.

 Check Atomic Coordinates:

                  Master (on file)          After Computed Tranformation               As specified on Input
           ----------------------------     ----------------------------     ---------------------------------
     1)    -0.73361  -1.21500  -0.04877     -0.73361  -1.21500  -0.04877      35  -0.73361  -1.21500  -0.04877
     2)    -2.06298  -1.67204  -0.35947     -2.06298  -1.67204  -0.35947      36  -2.06298  -1.67204  -0.35947
     3)    -2.27927  -2.46316  -1.50563     -2.27927  -2.46316  -1.50563      37  -2.27927  -2.46316  -1.50563
     4)    -3.56685  -2.88894  -1.83311     -3.56685  -2.88894  -1.83311      38  -3.56685  -2.88894  -1.83311
     5)    -4.65461  -2.53274  -1.02883     -4.65461  -2.53274  -1.02883      39  -4.65461  -2.53274  -1.02883
     6)    -4.44580  -1.74799   0.11102     -4.44580  -1.74799   0.11102      40  -4.44580  -1.74799   0.11102
     7)    -3.16320  -1.31386   0.44559     -3.16320  -1.31386   0.44559      41  -3.16320  -1.31386   0.44559
     8)     0.42069  -1.31561   0.41389      0.42069  -1.31561   0.41389      42   0.42069  -1.31561   0.41389
     9)     1.52026  -2.02202   1.01101      1.52026  -2.02202   1.01101      43   1.52026  -2.02202   1.01101
    10)     2.99587  -2.12145   2.86749      2.99587  -2.12145   2.86749      46   2.99587  -2.12145   2.86749
    11)     2.14086  -2.92341   0.47244      2.14086  -2.92341   0.47244      44   2.14086  -2.92341   0.47244
    12)     1.83293  -1.55670   2.23954      1.83293  -1.55670   2.23954      45   1.83293  -1.55670   2.23954
    13)    -1.42970  -2.73448  -2.13511     -1.42970  -2.73448  -2.13511      47  -1.42970  -2.73448  -2.13511
    14)    -3.72171  -3.50196  -2.72412     -3.72171  -3.50196  -2.72412      48  -3.72171  -3.50196  -2.72412
    15)    -5.66202  -2.86526  -1.28921     -5.66202  -2.86526  -1.28921      49  -5.66202  -2.86526  -1.28921
    16)    -5.29073  -1.46861   0.74491     -5.29073  -1.46861   0.74491      50  -5.29073  -1.46861   0.74491
    17)    -2.99968  -0.69209   1.32587     -2.99968  -0.69209   1.32587      51  -2.99968  -0.69209   1.32587
    18)     3.88979  -1.91207   2.26321      3.88979  -1.91207   2.26321      52   3.88979  -1.91207   2.26321
    19)     2.87671  -3.20624   2.99518      2.87671  -3.20624   2.99518      53   2.87671  -3.20624   2.99518
    20)     3.07415  -1.62979   3.84390      3.07415  -1.62979   3.84390      54   3.07415  -1.62979   3.84390



 =======
 S F O s  ***  (Symmetrized Fragment Orbitals)  ***
 =======
  
 SFOs are linear combinations of (valence) Fragment Orbitals (FOs), such that the SFOs transform as the
 irreducible representations of the (molecular) symmetry group. Each SFO is therefore characterized by
 an irrep of the molecule and by a few (or only one) generating FOs.
 The SFOs constitute a symmetry-adapted basis for the Fock matrix. The MO eigenvector coefficients in
 this basis provide a direct interpretation of the MOs in terms of Frontier Orbital Theory.

 The SFOs are combined with auxiliary Core Functions (CFs) to ensure orthogonalization on the (frozen)
 Core Orbitals (COs). The Core-orthogonalized SFOs (CSFOs) constitute the true Fock basis.

 The FOs, and hence also the (C)SFOs are combinations of the elementary basis functions (BAS). The basis
 functions that participate in the description of the SFOs depend on the irrep. The indices of the
 involved functions are printed below for each irrep.
 (The complete list of primitive basis functions is printed in another section)

 Total nr. of (C)SFOs (summation over all irreps) :  1029

 NOTE: a (C)SFO that is defined as a combination of more than one FO is usually NOT normalized.



                                       === A ===
 Nr. of SFOs : 1029
 Cartesian basis functions that participate in this irrep (total number =  1170) :
      1     2     3     4     5     6     9    12     7    10
     13     8    11    14    15    16    17    18    19    20
     21    22    23    24    25    26    27    28    29    30
     31    32    33    34    35    36    39    42    37    40
     43    38    41    44    45    46    47    48    49    50
     51    52    53    54    55    56    57    58    59    60
     61    62    63    64    65    66    69    72    67    70
     73    68    71    74    75    76    77    78    79    80
     81    82    83    84    85    86    87    88    89    90
     91    92    93    94    95    96    99   102    97   100
    103    98   101   104   105   106   107   108   109   110
    111   112   113   114   115   116   117   118   119   120
    121   122   123   124   125   126   129   132   127   130
    133   128   131   134   135   136   137   138   139   140
    141   142   143   144   145   146   147   148   149   150
    151   152   153   154   155   156   159   162   157   160
    163   158   161   164   165   166   167   168   169   170
    171   172   173   174   175   176   177   178   179   180
    181   182   183   184   185   186   189   192   187   190
    193   188   191   194   195   196   197   198   199   200
    201   202   203   204   205   206   207   208   209   210
    211   212   213   214   215   216   219   222   217   220
    223   218   221   224   225   226   227   228   229   230
    231   232   233   234   235   236   237   238   239   240
    241   242   243   244   245   246   249   252   247   250
    253   248   251   254   255   256   257   258   259   260
    261   262   263   264   265   266   267   268   269   270
    271   272   273   274   275   276   279   282   277   280
    283   278   281   284   285   286   287   288   289   290
    291   292   293   294   295   296   297   298   299   300
    301   302   303   304   305   306   309   312   307   310
    313   308   311   314   315   316   317   318   319   320
    321   322   323   324   325   326   327   328   329   330
    331   332   333   334   335   336   339   342   337   340
    343   338   341   344   345   346   347   348   349   350
    351   352   353   354   355   356   357   358   359   360
    361   362   363   364   365   366   369   372   367   370
    373   368   371   374   375   376   377   378   379   380
    381   382   383   384   385   386   387   388   389   390
    391   392   393   394   395   396   399   402   397   400
    403   398   401   404   405   406   407   408   409   410
    411   412   413   414   415   416   417   418   419   420
    421   422   423   424   425   426   429   432   427   430
    433   428   431   434   435   436   437   438   439   440
    441   442   443   444   445   446   447   448   449   450
    451   452   453   454   455   456   459   462   457   460
    463   458   461   464   465   466   467   468   469   470
    471   472   473   474   475   476   477   478   479   480
    481   482   483   484   485   486   489   492   487   490
    493   488   491   494   495   496   497   498   499   500
    501   502   503   504   505   506   507   508   509   510
    511   512   513   514   515   516   517   518   519   520
    521   522   523   524   525   526   527   528   529   530
    531   532   533   534   535   536   537   538   539   540
    541   542   543   544   545   546   547   548   549   550
    551   552   553   554   555   556   557   558   559   560
    561   562   563   564   565   566   567   568   569   570
    571   572   573   574   575   576   577   578   579   580
    581   582   583   584   585   586   587   588   589   590
    591   592   593   594   595   596   597   598   599   600
    601   602   603   604   605   606   607   608   609   610
    611   612   613   614   615   616   617   618   619   620
    621   622   623   624   625   626   627   628   629   630
    631   632   633   634   635   636   637   638   639   640
    641   642   643   644   645   646   647   648   649   650
    651   652   653   654   655   656   657   658   659   660
    661   662   663   664   665   666   667   668   669   670
    671   672   673   674   675   676   677   678   679   680
    681   682   683   684   685   686   687   688   689   690
    691   692   693   694   695   696   697   698   699   700
    701   702   703   704   705   706   707   708   709   710
    711   712   713   714   715   716   717   718   719   720
    723   726   721   724   727   722   725   728   729   730
    731   732   733   734   735   736   737   738   739   740
    741   742   743   744   745   746   747   748   749   750
    753   756   751   754   757   752   755   758   759   760
    761   762   763   764   765   766   767   768   769   770
    771   772   773   774   775   776   777   778   779   780
    783   786   781   784   787   782   785   788   789   790
    791   792   793   794   795   796   797   798   799   800
    801   802   803   804   805   806   807   808   809   810
    813   816   811   814   817   812   815   818   819   820
    821   822   823   824   825   826   827   828   829   830
    831   832   833   834   835   836   837   838   839   840
    843   846   841   844   847   842   845   848   849   850
    851   852   853   854   855   856   857   858   859   860
    861   862   863   864   865   866   867   868   869   870
    873   876   871   874   877   872   875   878   879   880
    881   882   883   884   885   886   887   888   889   890
    891   892   893   894   895   896   897   898   899   900
    903   906   901   904   907   902   905   908   909   910
    911   912   913   914   915   916   917   918   919   920
    921   922   923   924   925   926   927   928   929   930
    933   936   931   934   937   932   935   938   939   940
    941   942   943   944   945   946   947   948   949   950
    951   952   953   954   955   956   957   958   959   960
    963   966   961   964   967   962   965   968   969   970
    971   972   973   974   975   976   977   978   979   980
    981   982   983   984   985   986   987   988   989   990
    993   996   991   994   997   992   995   998   999  1000
   1001  1002  1003  1004  1005  1006  1007  1008  1009  1010
   1011  1012  1013  1014  1015  1016  1017  1018  1019  1020
   1023  1026  1021  1024  1027  1022  1025  1028  1029  1030
   1031  1032  1033  1034  1035  1036  1037  1038  1039  1040
   1041  1042  1043  1044  1045  1046  1047  1048  1049  1050
   1053  1056  1051  1054  1057  1052  1055  1058  1059  1060
   1061  1062  1063  1064  1065  1066  1067  1068  1069  1070
   1071  1072  1073  1074  1075  1076  1077  1078  1079  1080
   1081  1082  1083  1084  1085  1086  1087  1088  1089  1090
   1091  1092  1093  1094  1095  1096  1097  1098  1099  1100
   1101  1102  1103  1104  1105  1106  1107  1108  1109  1110
   1111  1112  1113  1114  1115  1116  1117  1118  1119  1120
   1121  1122  1123  1124  1125  1126  1127  1128  1129  1130
   1131  1132  1133  1134  1135  1136  1137  1138  1139  1140
   1141  1142  1143  1144  1145  1146  1147  1148  1149  1150
   1151  1152  1153  1154  1155  1156  1157  1158  1159  1160
   1161  1162  1163  1164  1165  1166  1167  1168  1169  1170

    SFO  (index         Fragment          Generating    Expansion in Fragment Orbitals
  indx  incl.CFs)   Occup   Orb.Energy   FragmentType  Coeff.   Orbital     on Fragment
 --------------------------------------------------------------------------------------
     1       1      2.000     -18.827 au  fA            1.00      1 A               1
                        (    -512.318 eV)
     2       2      2.000     -18.760 au  fA            1.00      2 A               1
                        (    -510.473 eV)
     3       3      2.000     -18.751 au  fA            1.00      3 A               1
                        (    -510.229 eV)
     4       4      2.000     -18.741 au  fA            1.00      4 A               1
                        (    -509.966 eV)
     5       5      2.000     -14.124 au  fA            1.00      5 A               1
                        (    -384.321 eV)
     6       6      2.000     -14.052 au  fA            1.00      6 A               1
                        (    -382.382 eV)
     7       7      2.000     -14.031 au  fA            1.00      7 A               1
                        (    -381.799 eV)
     8       8      2.000     -10.024 au  fA            1.00      8 A               1
                        (    -272.765 eV)
     9       9      2.000     -10.022 au  fA            1.00      9 A               1
                        (    -272.720 eV)
    10      10      2.000     -10.001 au  fA            1.00     10 A               1
                        (    -272.129 eV)
    11      11      2.000      -9.980 au  fA            1.00     11 A               1
                        (    -271.580 eV)
    12      12      2.000      -9.976 au  fA            1.00     12 A               1
                        (    -271.460 eV)
    13      13      2.000      -9.971 au  fA            1.00     13 A               1
                        (    -271.314 eV)
    14      14      2.000      -9.952 au  fA            1.00     14 A               1
                        (    -270.796 eV)
    15      15      2.000      -9.947 au  fA            1.00     15 A               1
                        (    -270.665 eV)
    16      16      2.000      -9.945 au  fA            1.00     16 A               1
                        (    -270.621 eV)
    17      17      2.000      -9.937 au  fA            1.00     17 A               1
                        (    -270.400 eV)
    18      18      2.000      -1.003 au  fA            1.00     18 A               1
                        (     -27.301 eV)
    19      19      2.000      -0.951 au  fA            1.00     19 A               1
                        (     -25.869 eV)
    20      20      2.000      -0.929 au  fA            1.00     20 A               1
                        (     -25.291 eV)
    21      21      2.000      -0.911 au  fA            1.00     21 A               1
                        (     -24.786 eV)
    22      22      2.000      -0.903 au  fA            1.00     22 A               1
                        (     -24.581 eV)
    23      23      2.000      -0.846 au  fA            1.00     23 A               1
                        (     -23.029 eV)
    24      24      2.000      -0.825 au  fA            1.00     24 A               1
                        (     -22.441 eV)
    25      25      2.000      -0.727 au  fA            1.00     25 A               1
                        (     -19.792 eV)
    26      26      2.000      -0.692 au  fA            1.00     26 A               1
                        (     -18.829 eV)
    27      27      2.000      -0.669 au  fA            1.00     27 A               1
                        (     -18.205 eV)
    28      28      2.000      -0.644 au  fA            1.00     28 A               1
                        (     -17.531 eV)
    29      29      2.000      -0.641 au  fA            1.00     29 A               1
                        (     -17.438 eV)
    30      30      2.000      -0.613 au  fA            1.00     30 A               1
                        (     -16.683 eV)
    31      31      2.000      -0.556 au  fA            1.00     31 A               1
                        (     -15.141 eV)
    32      32      2.000      -0.532 au  fA            1.00     32 A               1
                        (     -14.484 eV)
    33      33      2.000      -0.521 au  fA            1.00     33 A               1
                        (     -14.173 eV)
    34      34      2.000      -0.515 au  fA            1.00     34 A               1
                        (     -14.016 eV)
    35      35      2.000      -0.498 au  fA            1.00     35 A               1
                        (     -13.562 eV)
    36      36      2.000      -0.475 au  fA            1.00     36 A               1
                        (     -12.920 eV)
    37      37      2.000      -0.460 au  fA            1.00     37 A               1
                        (     -12.508 eV)
    38      38      2.000      -0.435 au  fA            1.00     38 A               1
                        (     -11.828 eV)
    39      39      2.000      -0.430 au  fA            1.00     39 A               1
                        (     -11.714 eV)
    40      40      2.000      -0.422 au  fA            1.00     40 A               1
                        (     -11.471 eV)
    41      41      2.000      -0.412 au  fA            1.00     41 A               1
                        (     -11.202 eV)
    42      42      2.000      -0.406 au  fA            1.00     42 A               1
                        (     -11.061 eV)
    43      43      2.000      -0.399 au  fA            1.00     43 A               1
                        (     -10.862 eV)
    44      44      2.000      -0.396 au  fA            1.00     44 A               1
                        (     -10.778 eV)
    45      45      2.000      -0.386 au  fA            1.00     45 A               1
                        (     -10.507 eV)
    46      46      2.000      -0.386 au  fA            1.00     46 A               1
                        (     -10.493 eV)
    47      47      2.000      -0.384 au  fA            1.00     47 A               1
                        (     -10.459 eV)
    48      48      2.000      -0.369 au  fA            1.00     48 A               1
                        (     -10.045 eV)
    49      49      2.000      -0.364 au  fA            1.00     49 A               1
                        (      -9.912 eV)
    50      50      2.000      -0.356 au  fA            1.00     50 A               1
                        (      -9.693 eV)
    51      51      2.000      -0.350 au  fA            1.00     51 A               1
                        (      -9.528 eV)
    52      52      2.000      -0.347 au  fA            1.00     52 A               1
                        (      -9.456 eV)
    53      53      2.000      -0.343 au  fA            1.00     53 A               1
                        (      -9.338 eV)
    54      54      2.000      -0.334 au  fA            1.00     54 A               1
                        (      -9.093 eV)
    55      55      2.000      -0.331 au  fA            1.00     55 A               1
                        (      -9.002 eV)
    56      56      2.000      -0.314 au  fA            1.00     56 A               1
                        (      -8.548 eV)
    57      57      2.000      -0.305 au  fA            1.00     57 A               1
                        (      -8.302 eV)
    58      58      2.000      -0.294 au  fA            1.00     58 A               1
                        (      -7.996 eV)
    59      59      2.000      -0.252 au  fA            1.00     59 A               1
                        (      -6.857 eV)
    60      60      2.000      -0.230 au  fA            1.00     60 A               1
                        (      -6.257 eV)
    61      61      2.000      -0.221 au  fA            1.00     61 A               1
                        (      -6.014 eV)
    62      62      2.000      -0.213 au  fA            1.00     62 A               1
                        (      -5.792 eV)
    63      63      2.000      -0.203 au  fA            1.00     63 A               1
                        (      -5.520 eV)
    64      64      2.000      -0.197 au  fA            1.00     64 A               1
                        (      -5.369 eV)
    65      65      2.000      -0.162 au  fA            1.00     65 A               1
                        (      -4.418 eV)
    66      66       --        -0.104 au  fA            1.00     66 A               1
                        (      -2.840 eV)
    67      67       --        -0.030 au  fA            1.00     67 A               1
                        (      -0.811 eV)
    68      68       --        -0.024 au  fA            1.00     68 A               1
                        (      -0.655 eV)
    69      69       --        -0.011 au  fA            1.00     69 A               1
                        (      -0.303 eV)
    70      70       --        -0.008 au  fA            1.00     70 A               1
                        (      -0.209 eV)
    71      71       --         0.001 au  fA            1.00     71 A               1
                        (       0.039 eV)
    72      72       --         0.012 au  fA            1.00     72 A               1
                        (       0.333 eV)
    73      73       --         0.014 au  fA            1.00     73 A               1
                        (       0.380 eV)
    74      74       --         0.020 au  fA            1.00     74 A               1
                        (       0.536 eV)
    75      75       --         0.027 au  fA            1.00     75 A               1
                        (       0.722 eV)
    76      76       --         0.032 au  fA            1.00     76 A               1
                        (       0.876 eV)
    77      77       --         0.041 au  fA            1.00     77 A               1
                        (       1.109 eV)
    78      78       --         0.047 au  fA            1.00     78 A               1
                        (       1.267 eV)
    79      79       --         0.047 au  fA            1.00     79 A               1
                        (       1.285 eV)
    80      80       --         0.054 au  fA            1.00     80 A               1
                        (       1.479 eV)
    81      81       --         0.063 au  fA            1.00     81 A               1
                        (       1.726 eV)
    82      82       --         0.073 au  fA            1.00     82 A               1
                        (       1.974 eV)
    83      83       --         0.074 au  fA            1.00     83 A               1
                        (       2.022 eV)
    84      84       --         0.079 au  fA            1.00     84 A               1
                        (       2.141 eV)
    85      85       --         0.082 au  fA            1.00     85 A               1
                        (       2.237 eV)
    86      86       --         0.088 au  fA            1.00     86 A               1
                        (       2.387 eV)
    87      87       --         0.098 au  fA            1.00     87 A               1
                        (       2.672 eV)
    88      88       --         0.106 au  fA            1.00     88 A               1
                        (       2.897 eV)
    89      89       --         0.117 au  fA            1.00     89 A               1
                        (       3.182 eV)
    90      90       --         0.121 au  fA            1.00     90 A               1
                        (       3.285 eV)
    91      91       --         0.126 au  fA            1.00     91 A               1
                        (       3.433 eV)
    92      92       --         0.137 au  fA            1.00     92 A               1
                        (       3.733 eV)
    93      93       --         0.144 au  fA            1.00     93 A               1
                        (       3.921 eV)
    94      94       --         0.158 au  fA            1.00     94 A               1
                        (       4.300 eV)
    95      95       --         0.159 au  fA            1.00     95 A               1
                        (       4.337 eV)
    96      96       --         0.167 au  fA            1.00     96 A               1
                        (       4.536 eV)
    97      97       --         0.182 au  fA            1.00     97 A               1
                        (       4.961 eV)
    98      98       --         0.185 au  fA            1.00     98 A               1
                        (       5.033 eV)
    99      99       --         0.192 au  fA            1.00     99 A               1
                        (       5.233 eV)
   100     100       --         0.194 au  fA            1.00    100 A               1
                        (       5.277 eV)
   101     101       --         0.201 au  fA            1.00    101 A               1
                        (       5.459 eV)
   102     102       --         0.204 au  fA            1.00    102 A               1
                        (       5.558 eV)
   103     103       --         0.211 au  fA            1.00    103 A               1
                        (       5.746 eV)
   104     104       --         0.217 au  fA            1.00    104 A               1
                        (       5.901 eV)
   105     105       --         0.220 au  fA            1.00    105 A               1
                        (       5.977 eV)
   106     106       --         0.227 au  fA            1.00    106 A               1
                        (       6.185 eV)
   107     107       --         0.243 au  fA            1.00    107 A               1
                        (       6.617 eV)
   108     108       --         0.251 au  fA            1.00    108 A               1
                        (       6.827 eV)
   109     109       --         0.256 au  fA            1.00    109 A               1
                        (       6.964 eV)
   110     110       --         0.258 au  fA            1.00    110 A               1
                        (       7.030 eV)
   111     111       --         0.265 au  fA            1.00    111 A               1
                        (       7.211 eV)
   112     112       --         0.275 au  fA            1.00    112 A               1
                        (       7.470 eV)
   113     113       --         0.282 au  fA            1.00    113 A               1
                        (       7.662 eV)
   114     114       --         0.286 au  fA            1.00    114 A               1
                        (       7.788 eV)
   115     115       --         0.289 au  fA            1.00    115 A               1
                        (       7.866 eV)
   116     116       --         0.296 au  fA            1.00    116 A               1
                        (       8.057 eV)
   117     117       --         0.298 au  fA            1.00    117 A               1
                        (       8.105 eV)
   118     118       --         0.304 au  fA            1.00    118 A               1
                        (       8.279 eV)
   119     119       --         0.312 au  fA            1.00    119 A               1
                        (       8.481 eV)
   120     120       --         0.318 au  fA            1.00    120 A               1
                        (       8.641 eV)
   121     121       --         0.328 au  fA            1.00    121 A               1
                        (       8.923 eV)
   122     122       --         0.340 au  fA            1.00    122 A               1
                        (       9.250 eV)
   123     123       --         0.341 au  fA            1.00    123 A               1
                        (       9.287 eV)
   124     124       --         0.347 au  fA            1.00    124 A               1
                        (       9.437 eV)
   125     125       --         0.352 au  fA            1.00    125 A               1
                        (       9.579 eV)
   126     126       --         0.355 au  fA            1.00    126 A               1
                        (       9.652 eV)
   127     127       --         0.359 au  fA            1.00    127 A               1
                        (       9.774 eV)
   128     128       --         0.365 au  fA            1.00    128 A               1
                        (       9.934 eV)
   129     129       --         0.368 au  fA            1.00    129 A               1
                        (      10.022 eV)
   130     130       --         0.379 au  fA            1.00    130 A               1
                        (      10.305 eV)
   131     131       --         0.382 au  fA            1.00    131 A               1
                        (      10.382 eV)
   132     132       --         0.390 au  fA            1.00    132 A               1
                        (      10.607 eV)
   133     133       --         0.396 au  fA            1.00    133 A               1
                        (      10.788 eV)
   134     134       --         0.404 au  fA            1.00    134 A               1
                        (      10.987 eV)
   135     135       --         0.409 au  fA            1.00    135 A               1
                        (      11.130 eV)
   136     136       --         0.417 au  fA            1.00    136 A               1
                        (      11.354 eV)
   137     137       --         0.425 au  fA            1.00    137 A               1
                        (      11.574 eV)
   138     138       --         0.432 au  fA            1.00    138 A               1
                        (      11.763 eV)
   139     139       --         0.435 au  fA            1.00    139 A               1
                        (      11.840 eV)
   140     140       --         0.441 au  fA            1.00    140 A               1
                        (      12.009 eV)
   141     141       --         0.452 au  fA            1.00    141 A               1
                        (      12.302 eV)
   142     142       --         0.463 au  fA            1.00    142 A               1
                        (      12.587 eV)
   143     143       --         0.468 au  fA            1.00    143 A               1
                        (      12.727 eV)
   144     144       --         0.473 au  fA            1.00    144 A               1
                        (      12.868 eV)
   145     145       --         0.485 au  fA            1.00    145 A               1
                        (      13.197 eV)
   146     146       --         0.494 au  fA            1.00    146 A               1
                        (      13.450 eV)
   147     147       --         0.495 au  fA            1.00    147 A               1
                        (      13.477 eV)
   148     148       --         0.504 au  fA            1.00    148 A               1
                        (      13.724 eV)
   149     149       --         0.511 au  fA            1.00    149 A               1
                        (      13.913 eV)
   150     150       --         0.521 au  fA            1.00    150 A               1
                        (      14.181 eV)
   151     151       --         0.535 au  fA            1.00    151 A               1
                        (      14.571 eV)
   152     152       --         0.538 au  fA            1.00    152 A               1
                        (      14.649 eV)
   153     153       --         0.546 au  fA            1.00    153 A               1
                        (      14.862 eV)
   154     154       --         0.561 au  fA            1.00    154 A               1
                        (      15.253 eV)
   155     155       --         0.566 au  fA            1.00    155 A               1
                        (      15.415 eV)
   156     156       --         0.579 au  fA            1.00    156 A               1
                        (      15.765 eV)
   157     157       --         0.584 au  fA            1.00    157 A               1
                        (      15.890 eV)
   158     158       --         0.595 au  fA            1.00    158 A               1
                        (      16.192 eV)
   159     159       --         0.619 au  fA            1.00    159 A               1
                        (      16.837 eV)
   160     160       --         0.639 au  fA            1.00    160 A               1
                        (      17.393 eV)
   161     161       --         0.668 au  fA            1.00    161 A               1
                        (      18.173 eV)
   162     162       --         0.672 au  fA            1.00    162 A               1
                        (      18.285 eV)
   163     163       --         0.682 au  fA            1.00    163 A               1
                        (      18.549 eV)
   164     164       --         0.692 au  fA            1.00    164 A               1
                        (      18.840 eV)
   165     165       --         0.712 au  fA            1.00    165 A               1
                        (      19.387 eV)
   166     166       --         0.720 au  fA            1.00    166 A               1
                        (      19.582 eV)
   167     167       --         0.724 au  fA            1.00    167 A               1
                        (      19.695 eV)
   168     168       --         0.743 au  fA            1.00    168 A               1
                        (      20.210 eV)
   169     169       --         0.760 au  fA            1.00    169 A               1
                        (      20.675 eV)
   170     170       --         0.771 au  fA            1.00    170 A               1
                        (      20.971 eV)
   171     171       --         0.781 au  fA            1.00    171 A               1
                        (      21.244 eV)
   172     172       --         0.815 au  fA            1.00    172 A               1
                        (      22.177 eV)
   173     173       --         0.820 au  fA            1.00    173 A               1
                        (      22.318 eV)
   174     174       --         0.824 au  fA            1.00    174 A               1
                        (      22.410 eV)
   175     175       --         0.834 au  fA            1.00    175 A               1
                        (      22.698 eV)
   176     176       --         0.852 au  fA            1.00    176 A               1
                        (      23.189 eV)
   177     177       --         0.872 au  fA            1.00    177 A               1
                        (      23.717 eV)
   178     178       --         0.882 au  fA            1.00    178 A               1
                        (      23.992 eV)
   179     179       --         0.889 au  fA            1.00    179 A               1
                        (      24.190 eV)
   180     180       --         0.894 au  fA            1.00    180 A               1
                        (      24.316 eV)
   181     181       --         0.905 au  fA            1.00    181 A               1
                        (      24.621 eV)
   182     182       --         0.912 au  fA            1.00    182 A               1
                        (      24.821 eV)
   183     183       --         0.924 au  fA            1.00    183 A               1
                        (      25.134 eV)
   184     184       --         0.925 au  fA            1.00    184 A               1
                        (      25.171 eV)
   185     185       --         0.945 au  fA            1.00    185 A               1
                        (      25.707 eV)
   186     186       --         0.948 au  fA            1.00    186 A               1
                        (      25.797 eV)
   187     187       --         0.957 au  fA            1.00    187 A               1
                        (      26.047 eV)
   188     188       --         0.965 au  fA            1.00    188 A               1
                        (      26.263 eV)
   189     189       --         0.983 au  fA            1.00    189 A               1
                        (      26.755 eV)
   190     190       --         0.985 au  fA            1.00    190 A               1
                        (      26.807 eV)
   191     191       --         0.987 au  fA            1.00    191 A               1
                        (      26.862 eV)
   192     192       --         0.994 au  fA            1.00    192 A               1
                        (      27.047 eV)
   193     193       --         1.010 au  fA            1.00    193 A               1
                        (      27.491 eV)
   194     194       --         1.012 au  fA            1.00    194 A               1
                        (      27.548 eV)
   195     195       --         1.018 au  fA            1.00    195 A               1
                        (      27.688 eV)
   196     196       --         1.026 au  fA            1.00    196 A               1
                        (      27.932 eV)
   197     197       --         1.039 au  fA            1.00    197 A               1
                        (      28.278 eV)
   198     198       --         1.041 au  fA            1.00    198 A               1
                        (      28.325 eV)
   199     199       --         1.057 au  fA            1.00    199 A               1
                        (      28.770 eV)
   200     200       --         1.072 au  fA            1.00    200 A               1
                        (      29.175 eV)
   201     201       --         1.077 au  fA            1.00    201 A               1
                        (      29.297 eV)
   202     202       --         1.082 au  fA            1.00    202 A               1
                        (      29.431 eV)
   203     203       --         1.092 au  fA            1.00    203 A               1
                        (      29.728 eV)
   204     204       --         1.095 au  fA            1.00    204 A               1
                        (      29.798 eV)
   205     205       --         1.101 au  fA            1.00    205 A               1
                        (      29.951 eV)
   206     206       --         1.113 au  fA            1.00    206 A               1
                        (      30.285 eV)
   207     207       --         1.127 au  fA            1.00    207 A               1
                        (      30.671 eV)
   208     208       --         1.134 au  fA            1.00    208 A               1
                        (      30.869 eV)
   209     209       --         1.144 au  fA            1.00    209 A               1
                        (      31.125 eV)
   210     210       --         1.155 au  fA            1.00    210 A               1
                        (      31.442 eV)
   211     211       --         1.172 au  fA            1.00    211 A               1
                        (      31.890 eV)
   212     212       --         1.181 au  fA            1.00    212 A               1
                        (      32.127 eV)
   213     213       --         1.192 au  fA            1.00    213 A               1
                        (      32.429 eV)
   214     214       --         1.204 au  fA            1.00    214 A               1
                        (      32.760 eV)
   215     215       --         1.205 au  fA            1.00    215 A               1
                        (      32.791 eV)
   216     216       --         1.224 au  fA            1.00    216 A               1
                        (      33.306 eV)
   217     217       --         1.228 au  fA            1.00    217 A               1
                        (      33.421 eV)
   218     218       --         1.233 au  fA            1.00    218 A               1
                        (      33.548 eV)
   219     219       --         1.240 au  fA            1.00    219 A               1
                        (      33.744 eV)
   220     220       --         1.253 au  fA            1.00    220 A               1
                        (      34.098 eV)
   221     221       --         1.256 au  fA            1.00    221 A               1
                        (      34.165 eV)
   222     222       --         1.273 au  fA            1.00    222 A               1
                        (      34.634 eV)
   223     223       --         1.291 au  fA            1.00    223 A               1
                        (      35.134 eV)
   224     224       --         1.301 au  fA            1.00    224 A               1
                        (      35.390 eV)
   225     225       --         1.314 au  fA            1.00    225 A               1
                        (      35.743 eV)
   226     226       --         1.326 au  fA            1.00    226 A               1
                        (      36.094 eV)
   227     227       --         1.336 au  fA            1.00    227 A               1
                        (      36.360 eV)
   228     228       --         1.343 au  fA            1.00    228 A               1
                        (      36.545 eV)
   229     229       --         1.361 au  fA            1.00    229 A               1
                        (      37.026 eV)
   230     230       --         1.368 au  fA            1.00    230 A               1
                        (      37.226 eV)
   231     231       --         1.379 au  fA            1.00    231 A               1
                        (      37.538 eV)
   232     232       --         1.383 au  fA            1.00    232 A               1
                        (      37.638 eV)
   233     233       --         1.390 au  fA            1.00    233 A               1
                        (      37.830 eV)
   234     234       --         1.402 au  fA            1.00    234 A               1
                        (      38.158 eV)
   235     235       --         1.408 au  fA            1.00    235 A               1
                        (      38.312 eV)
   236     236       --         1.417 au  fA            1.00    236 A               1
                        (      38.568 eV)
   237     237       --         1.433 au  fA            1.00    237 A               1
                        (      38.991 eV)
   238     238       --         1.434 au  fA            1.00    238 A               1
                        (      39.019 eV)
   239     239       --         1.449 au  fA            1.00    239 A               1
                        (      39.416 eV)
   240     240       --         1.452 au  fA            1.00    240 A               1
                        (      39.522 eV)
   241     241       --         1.463 au  fA            1.00    241 A               1
                        (      39.802 eV)
   242     242       --         1.473 au  fA            1.00    242 A               1
                        (      40.082 eV)
   243     243       --         1.492 au  fA            1.00    243 A               1
                        (      40.590 eV)
   244     244       --         1.504 au  fA            1.00    244 A               1
                        (      40.913 eV)
   245     245       --         1.521 au  fA            1.00    245 A               1
                        (      41.377 eV)
   246     246       --         1.535 au  fA            1.00    246 A               1
                        (      41.767 eV)
   247     247       --         1.537 au  fA            1.00    247 A               1
                        (      41.836 eV)
   248     248       --         1.555 au  fA            1.00    248 A               1
                        (      42.310 eV)
   249     249       --         1.561 au  fA            1.00    249 A               1
                        (      42.488 eV)
   250     250       --         1.586 au  fA            1.00    250 A               1
                        (      43.146 eV)
   251     251       --         1.595 au  fA            1.00    251 A               1
                        (      43.409 eV)
   252     252       --         1.605 au  fA            1.00    252 A               1
                        (      43.663 eV)
   253     253       --         1.612 au  fA            1.00    253 A               1
                        (      43.872 eV)
   254     254       --         1.622 au  fA            1.00    254 A               1
                        (      44.146 eV)
   255     255       --         1.623 au  fA            1.00    255 A               1
                        (      44.165 eV)
   256     256       --         1.633 au  fA            1.00    256 A               1
                        (      44.432 eV)
   257     257       --         1.657 au  fA            1.00    257 A               1
                        (      45.076 eV)
   258     258       --         1.671 au  fA            1.00    258 A               1
                        (      45.466 eV)
   259     259       --         1.684 au  fA            1.00    259 A               1
                        (      45.827 eV)
   260     260       --         1.703 au  fA            1.00    260 A               1
                        (      46.350 eV)
   261     261       --         1.713 au  fA            1.00    261 A               1
                        (      46.625 eV)
   262     262       --         1.722 au  fA            1.00    262 A               1
                        (      46.868 eV)
   263     263       --         1.743 au  fA            1.00    263 A               1
                        (      47.425 eV)
   264     264       --         1.750 au  fA            1.00    264 A               1
                        (      47.613 eV)
   265     265       --         1.756 au  fA            1.00    265 A               1
                        (      47.778 eV)
   266     266       --         1.773 au  fA            1.00    266 A               1
                        (      48.249 eV)
   267     267       --         1.783 au  fA            1.00    267 A               1
                        (      48.510 eV)
   268     268       --         1.793 au  fA            1.00    268 A               1
                        (      48.793 eV)
   269     269       --         1.798 au  fA            1.00    269 A               1
                        (      48.936 eV)
   270     270       --         1.805 au  fA            1.00    270 A               1
                        (      49.122 eV)
   271     271       --         1.823 au  fA            1.00    271 A               1
                        (      49.613 eV)
   272     272       --         1.842 au  fA            1.00    272 A               1
                        (      50.113 eV)
   273     273       --         1.845 au  fA            1.00    273 A               1
                        (      50.203 eV)
   274     274       --         1.859 au  fA            1.00    274 A               1
                        (      50.591 eV)
   275     275       --         1.874 au  fA            1.00    275 A               1
                        (      50.986 eV)
   276     276       --         1.878 au  fA            1.00    276 A               1
                        (      51.101 eV)
   277     277       --         1.902 au  fA            1.00    277 A               1
                        (      51.751 eV)
   278     278       --         1.917 au  fA            1.00    278 A               1
                        (      52.160 eV)
   279     279       --         1.923 au  fA            1.00    279 A               1
                        (      52.327 eV)
   280     280       --         1.939 au  fA            1.00    280 A               1
                        (      52.756 eV)
   281     281       --         1.952 au  fA            1.00    281 A               1
                        (      53.121 eV)
   282     282       --         1.968 au  fA            1.00    282 A               1
                        (      53.544 eV)
   283     283       --         1.975 au  fA            1.00    283 A               1
                        (      53.756 eV)
   284     284       --         2.002 au  fA            1.00    284 A               1
                        (      54.480 eV)
   285     285       --         2.006 au  fA            1.00    285 A               1
                        (      54.585 eV)
   286     286       --         2.018 au  fA            1.00    286 A               1
                        (      54.914 eV)
   287     287       --         2.026 au  fA            1.00    287 A               1
                        (      55.133 eV)
   288     288       --         2.039 au  fA            1.00    288 A               1
                        (      55.484 eV)
   289     289       --         2.047 au  fA            1.00    289 A               1
                        (      55.699 eV)
   290     290       --         2.055 au  fA            1.00    290 A               1
                        (      55.928 eV)
   291     291       --         2.062 au  fA            1.00    291 A               1
                        (      56.104 eV)
   292     292       --         2.073 au  fA            1.00    292 A               1
                        (      56.399 eV)
   293     293       --         2.080 au  fA            1.00    293 A               1
                        (      56.591 eV)
   294     294       --         2.090 au  fA            1.00    294 A               1
                        (      56.875 eV)
   295     295       --         2.099 au  fA            1.00    295 A               1
                        (      57.123 eV)
   296     296       --         2.109 au  fA            1.00    296 A               1
                        (      57.389 eV)
   297     297       --         2.120 au  fA            1.00    297 A               1
                        (      57.683 eV)
   298     298       --         2.128 au  fA            1.00    298 A               1
                        (      57.904 eV)
   299     299       --         2.148 au  fA            1.00    299 A               1
                        (      58.461 eV)
   300     300       --         2.159 au  fA            1.00    300 A               1
                        (      58.761 eV)
   301     301       --         2.179 au  fA            1.00    301 A               1
                        (      59.287 eV)
   302     302       --         2.193 au  fA            1.00    302 A               1
                        (      59.669 eV)
   303     303       --         2.227 au  fA            1.00    303 A               1
                        (      60.588 eV)
   304     304       --         2.247 au  fA            1.00    304 A               1
                        (      61.151 eV)
   305     305       --         2.256 au  fA            1.00    305 A               1
                        (      61.399 eV)
   306     306       --         2.258 au  fA            1.00    306 A               1
                        (      61.455 eV)
   307     307       --         2.290 au  fA            1.00    307 A               1
                        (      62.324 eV)
   308     308       --         2.304 au  fA            1.00    308 A               1
                        (      62.699 eV)
   309     309       --         2.313 au  fA            1.00    309 A               1
                        (      62.943 eV)
   310     310       --         2.353 au  fA            1.00    310 A               1
                        (      64.042 eV)
   311     311       --         2.358 au  fA            1.00    311 A               1
                        (      64.169 eV)
   312     312       --         2.365 au  fA            1.00    312 A               1
                        (      64.343 eV)
   313     313       --         2.385 au  fA            1.00    313 A               1
                        (      64.901 eV)
   314     314       --         2.410 au  fA            1.00    314 A               1
                        (      65.584 eV)
   315     315       --         2.419 au  fA            1.00    315 A               1
                        (      65.821 eV)
   316     316       --         2.439 au  fA            1.00    316 A               1
                        (      66.372 eV)
   317     317       --         2.447 au  fA            1.00    317 A               1
                        (      66.592 eV)
   318     318       --         2.468 au  fA            1.00    318 A               1
                        (      67.170 eV)
   319     319       --         2.494 au  fA            1.00    319 A               1
                        (      67.862 eV)
   320     320       --         2.502 au  fA            1.00    320 A               1
                        (      68.089 eV)
   321     321       --         2.531 au  fA            1.00    321 A               1
                        (      68.875 eV)
   322     322       --         2.579 au  fA            1.00    322 A               1
                        (      70.172 eV)
   323     323       --         2.592 au  fA            1.00    323 A               1
                        (      70.536 eV)
   324     324       --         2.602 au  fA            1.00    324 A               1
                        (      70.801 eV)
   325     325       --         2.635 au  fA            1.00    325 A               1
                        (      71.698 eV)
   326     326       --         2.647 au  fA            1.00    326 A               1
                        (      72.017 eV)
   327     327       --         2.664 au  fA            1.00    327 A               1
                        (      72.499 eV)
   328     328       --         2.686 au  fA            1.00    328 A               1
                        (      73.100 eV)
   329     329       --         2.711 au  fA            1.00    329 A               1
                        (      73.768 eV)
   330     330       --         2.721 au  fA            1.00    330 A               1
                        (      74.050 eV)
   331     331       --         2.735 au  fA            1.00    331 A               1
                        (      74.435 eV)
   332     332       --         2.750 au  fA            1.00    332 A               1
                        (      74.841 eV)
   333     333       --         2.763 au  fA            1.00    333 A               1
                        (      75.187 eV)
   334     334       --         2.770 au  fA            1.00    334 A               1
                        (      75.367 eV)
   335     335       --         2.772 au  fA            1.00    335 A               1
                        (      75.440 eV)
[...]
     450       52.1384         0.000       
     449       51.9102         0.000       
     448       51.6788         0.000       
     447       51.6087         0.000       
     446       51.4485         0.000       
     445       51.1961         0.000       
     444       50.8181         0.000       
     443       50.7690         0.000       
     442       50.6925         0.000       
     441       50.5117         0.000       
     440       50.2481         0.000       
     439       50.0458         0.000       
     438       49.8893         0.000       
     437       49.7525         0.000       
     436       49.5649         0.000       
     435       49.5541         0.000       
     434       49.2698         0.000       
     433       49.0690         0.000       
     432       48.9451         0.000       
     431       48.8667         0.000       
     430       48.4610         0.000       
     429       48.3778         0.000       
     428       48.2391         0.000       
     427       47.8998         0.000       
     426       47.7418         0.000       
     425       47.4843         0.000       
     424       47.1373         0.000       
     423       47.0881         0.000       
     422       46.7871         0.000       
     421       46.7164         0.000       
     420       46.5373         0.000       
     419       46.0927         0.000       
     418       45.7396         0.000       
     417       45.4400         0.000       
     416       45.3238         0.000       
     415       45.1035         0.000       
     414       44.8925         0.000       
     413       44.6159         0.000       
     412       44.5048         0.000       
     411       44.2041         0.000       
     410       44.1646         0.000       
     409       43.8718         0.000       
     408       43.6503         0.000       
     407       43.2798         0.000       
     406       43.1525         0.000       
     405       42.9807         0.000       
     404       42.7887         0.000       
     403       42.3811         0.000       
     402       42.2443         0.000       
     401       42.0238         0.000       
     400       41.8757         0.000       
     399       41.8170         0.000       
     398       41.4547         0.000       
     397       41.1409         0.000       
     396       41.0217         0.000       
     395       40.8862         0.000       
     394       40.7044         0.000       
     393       40.4758         0.000       
     392       40.4381         0.000       
     391       40.1128         0.000       
     390       39.9134         0.000       
     389       39.8393         0.000       
     388       39.7158         0.000       
     387       39.5589         0.000       
     386       39.4534         0.000       
     385       39.2952         0.000       
     384       39.0669         0.000       
     383       38.8659         0.000       
     382       38.8034         0.000       
     381       38.6707         0.000       
     380       38.5758         0.000       
     379       38.4033         0.000       
     378       38.0982         0.000       
     377       37.8127         0.000       
     376       37.7320         0.000       
     375       37.5807         0.000       
     374       37.4258         0.000       
     373       37.3597         0.000       
     372       37.0305         0.000       
     371       36.8271         0.000       
     370       36.6633         0.000       
     369       36.4953         0.000       
     368       36.2537         0.000       
     367       36.1012         0.000       
     366       36.0194         0.000       
     365       35.9345         0.000       
     364       35.6582         0.000       
     363       35.5063         0.000       
     362       35.3125         0.000       
     361       35.0837         0.000       
     360       34.9994         0.000       
     359       34.8637         0.000       
     358       34.4714         0.000       
     357       34.2277         0.000       
     356       34.0782         0.000       
     355       33.9490         0.000       
     354       33.8362         0.000       
     353       33.6528         0.000       
     352       33.5652         0.000       
     351       33.5217         0.000       
     350       33.2209         0.000       
     349       33.0482         0.000       
     348       32.7654         0.000       
     347       32.7544         0.000       
     346       32.2267         0.000       
     345       32.0920         0.000       
     344       32.0032         0.000       
     343       31.7527         0.000       
     342       31.6324         0.000       
     341       31.4595         0.000       
     340       31.2276         0.000       
     339       31.0369         0.000       
     338       30.9304         0.000       
     337       30.7043         0.000       
     336       30.5521         0.000       
     335       30.4120         0.000       
     334       30.2990         0.000       
     333       30.2632         0.000       
     332       29.9485         0.000       
     331       29.9084         0.000       
     330       29.7398         0.000       
     329       29.4624         0.000       
     328       29.3935         0.000       
     327       29.3270         0.000       
     326       29.2762         0.000       
     325       29.0744         0.000       
     324       28.8616         0.000       
     323       28.7223         0.000       
     322       28.6383         0.000       
     321       28.4722         0.000       
     320       28.3877         0.000       
     319       28.2974         0.000       
     318       28.2187         0.000       
     317       28.1425         0.000       
     316       27.8681         0.000       
     315       27.7277         0.000       
     314       27.5385         0.000       
     313       27.3213         0.000       
     312       27.2187         0.000       
     311       27.1823         0.000       
     310       27.0792         0.000       
     309       26.8971         0.000       
     308       26.8537         0.000       
     307       26.7436         0.000       
     306       26.3765         0.000       
     305       26.3235         0.000       
     304       26.1262         0.000       
     303       25.9734         0.000       
     302       25.8867         0.000       
     301       25.7010         0.000       
     300       25.6212         0.000       
     299       25.4319         0.000       
     298       25.2180         0.000       
     297       25.0204         0.000       
     296       24.7875         0.000       
     295       24.4999         0.000       
     294       24.4181         0.000       
     293       24.3104         0.000       
     292       24.0656         0.000       
     291       23.8079         0.000       
     290       23.7419         0.000       
     289       23.5363         0.000       
     288       23.4716         0.000       
     287       23.1019         0.000       
     286       22.9368         0.000       
     285       22.8640         0.000       
     284       22.5604         0.000       
     283       22.3945         0.000       
     282       22.2404         0.000       
     281       22.0237         0.000       
     280       21.9106         0.000       
     279       21.8749         0.000       
     278       21.7129         0.000       
     277       21.3756         0.000       
     276       21.1970         0.000       
     275       21.0455         0.000       
     274       20.7457         0.000       
     273       20.5588         0.000       
     272       20.4775         0.000       
     271       20.3152         0.000       
     270       20.0092         0.000       
     269       19.8883         0.000       
     268       19.5783         0.000       
     267       19.4319         0.000       
     266       19.1989         0.000       
     265       18.9579         0.000       
     264       18.9163         0.000       
     263       18.6839         0.000       
     262       18.4317         0.000       
     261       18.3571         0.000       
     260       18.0786         0.000       
     259       17.8620         0.000       
     258       17.5680         0.000       
     257       17.3010         0.000       
     256       17.0976         0.000       
     255       17.0138         0.000       
     254       16.7856         0.000       
     253       16.4839         0.000       
     252       16.3399         0.000       
     251       15.9995         0.000       
     250       15.7830         0.000       
     249       15.5285         0.000       
     248       15.2871         0.000       
     247       15.2394         0.000       
     246       15.1375         0.000       
     245       14.9656         0.000       
     244       14.7697         0.000       
     243       14.7088         0.000       
     242       14.4593         0.000       
     241       14.2353         0.000       
     240       14.0171         0.000       
     239       13.9829         0.000       
     238       13.7739         0.000       
     237       13.6570         0.000       
     236       13.5752         0.000       
     235       13.4398         0.000       
     234       13.3401         0.000       
     233       13.1397         0.000       
     232       13.0599         0.000       
     231       12.8752         0.000       
     230       12.7679         0.000       
     229       12.7493         0.000       
     228       12.5691         0.000       
     227       12.4368         0.000       
     226       12.3766         0.000       
     225       12.2469         0.000       
     224       12.1112         0.000       
     223       11.9128         0.000       
     222       11.8954         0.000       
     221       11.8117         0.000       
     220       11.5990         0.000       
     219       11.4543         0.000       
     218       11.4058         0.000       
     217       11.2006         0.000       
     216       10.9625         0.000       
     215       10.9100         0.000       
     214       10.7628         0.000       
     213       10.6667         0.000       
     212       10.5496         0.000       
     211       10.4755         0.000       
     210       10.3788         0.000       
     209       10.3306         0.000       
     208       10.2152         0.000       
     207       10.0357         0.000       
     206        9.8926         0.000       
     205        9.8558         0.000       
     204        9.7608         0.000       
     203        9.7233         0.000       
     202        9.6266         0.000       
     201        9.5306         0.000       
     200        9.3327         0.000       
     199        9.1885         0.000       
     198        9.1231         0.000       
     197        9.0378         0.000       
     196        8.8670         0.000       
     195        8.8053         0.000       
     194        8.7728         0.000       
     193        8.6405         0.000       
     192        8.4931         0.000       
     191        8.4645         0.000       
     190        8.4552         0.000       
     189        8.3783         0.000       
     188        8.2376         0.000       
     187        8.0948         0.000       
     186        7.9060         0.000       
     185        7.8620         0.000       
     184        7.8092         0.000       
     183        7.6017         0.000       
     182        7.5504         0.000       
     181        7.5138         0.000       
     180        7.2990         0.000       
     179        7.1349         0.000       
     178        6.9739         0.000       
     177        6.9102         0.000       
     176        6.6875         0.000       
     175        6.6694         0.000       
     174        6.5213         0.000       
     173        6.3651         0.000       
     172        6.2840         0.000       
     171        6.2498         0.000       
     170        6.0634         0.000       
     169        5.9910         0.000       
     168        5.8580         0.000       
     167        5.7252         0.000       
     166        5.6155         0.000       
     165        5.5522         0.000       
     164        5.4284         0.000       
     163        5.3407         0.000       
     162        5.2996         0.000       
     161        5.2251         0.000       
     160        5.2082         0.000       
     159        5.0667         0.000       
     158        4.9976         0.000       
     157        4.9654         0.000       
     156        4.7545         0.000       
     155        4.6279         0.000       
     154        4.4223         0.000       
     153        4.3867         0.000       
     152        4.3095         0.000       
     151        4.2186         0.000       
     150        4.0144         0.000       
     149        3.7712         0.000       
     148        3.5173         0.000       
     147        3.3980         0.000       
     146        3.2323         0.000       
     145        3.1848         0.000       
     144        3.0541         0.000       
     143        2.9540         0.000       
     142        2.7984         0.000       
     141        2.6993         0.000       
     140        2.4717         0.000       
     139        2.3847         0.000       
     138        2.2108         0.000       
     137        2.1694         0.000       
     136        2.1353         0.000       
     135        2.0006         0.000       
     134        1.8796         0.000       
     133        1.8177         0.000       
     132        1.7607         0.000       
     131        1.6727         0.000       
     130        1.4263         0.000       
     129        1.3305         0.000       
     128        1.2478         0.000       
     127        1.1753         0.000       
     126        1.0625         0.000       
     125        0.9499         0.000       
     124        0.8823         0.000       
     123        0.7642         0.000       
     122        0.6820         0.000       
     121        0.4543         0.000       
     120        0.3712         0.000       
     119        0.2121         0.000       
     118       -0.0739         0.000       
     117       -0.1100         0.000       
     116       -0.1491         0.000       
     115       -0.2969         0.000       
     114       -0.5358         0.000       
     113       -0.6609         0.000       
     112       -0.8123         0.000       
     111       -0.9208         0.000       
     110       -1.3511         0.000       
     109       -1.9694         0.000       
     108       -2.7023         0.000 < LUMO
     107       -5.1131         2.000 < HOMO
     106       -5.5059         2.000       
     105       -5.6375         2.000       
     104       -5.7497         2.000       
     103       -5.8117         2.000       
     102       -6.2353         2.000       
     101       -6.3530         2.000       
     100       -6.3776         2.000       
      99       -6.4424         2.000       
      98       -6.9433         2.000       
      97       -7.1299         2.000       
      96       -7.1899         2.000       
      95       -7.3064         2.000       
      94       -8.2184         2.000       
      93       -8.4140         2.000       
      92       -8.4984         2.000       
      91       -8.5838         2.000       
      90       -8.7414         2.000       
      89       -8.7834         2.000       
      88       -9.1660         2.000       
      87       -9.2199         2.000       
      86       -9.2286         2.000       
      85       -9.4401         2.000       
      84       -9.5883         2.000       
      83       -9.6137         2.000       
      82       -9.7880         2.000       
      81       -9.8805         2.000       
      80      -10.0153         2.000       
      79      -10.1133         2.000       
      78      -10.3447         2.000       
      77      -10.3627         2.000       
      76      -10.5010         2.000       
      75      -10.5690         2.000       
      74      -10.5989         2.000       
      73      -10.6875         2.000       
      72      -10.9066         2.000       
      71      -10.9701         2.000       
      70      -11.2011         2.000       
      69      -11.2156         2.000       
      68      -11.2445         2.000       
      67      -11.4495         2.000       
      66      -11.5364         2.000       
      65      -11.5974         2.000       
      64      -11.7046         2.000       
      63      -11.9749         2.000       
      62      -12.0911         2.000       
      61      -12.5813         2.000       
      60      -12.9881         2.000       
      59      -13.0557         2.000       
      58      -13.3716         2.000       
      57      -13.7610         2.000       
      56      -14.1112         2.000       
      55      -14.3400         2.000       
      54      -14.6114         2.000       
      53      -14.7199         2.000       
      52      -14.9843         2.000       
      51      -15.2664         2.000       
      50      -15.6933         2.000       
      49      -16.7749         2.000       
      48      -17.5012         2.000       
      47      -17.6260         2.000       
      46      -17.6950         2.000       
      45      -18.2844         2.000       
      44      -18.5148         2.000       
      43      -18.6786         2.000       
      42      -18.9032         2.000       
      41      -19.5841         2.000       
      40      -19.9947         2.000       
      39      -21.4220         2.000       
      38      -22.4992         2.000       
      37      -23.1468         2.000       
      36      -24.7606         2.000       
      35      -24.9760         2.000       
      34      -25.1936         2.000       
      33      -25.4406         2.000       
      32      -25.9980         2.000       
      31      -27.5171         2.000       
      30      -27.6488         2.000       
      29     -270.1147         2.000       
      28     -270.1690         2.000       
      27     -270.2227         2.000       
      26     -270.2476         2.000       
      25     -270.2799         2.000       
      24     -270.2927         2.000       
      23     -270.3387         2.000       
      22     -270.4767         2.000       
      21     -270.6298         2.000       
      20     -270.8196         2.000       
      19     -270.9006         2.000       
      18     -271.2643         2.000       
      17     -271.3651         2.000       
      16     -271.4129         2.000       
      15     -271.4201         2.000       
      14     -271.9809         2.000       
      13     -272.2961         2.000       
      12     -272.7945         2.000       
      11     -273.2004         2.000       
      10     -273.4731         2.000       
       9     -381.7345         2.000       
       8     -382.5085         2.000       
       7     -383.8334         2.000       
       6     -510.1598         2.000       
       5     -510.5567         2.000       
       4     -510.7068         2.000       
       3     -510.9494         2.000       
       2     -512.4898         2.000       
       1     -512.7377         2.000       

AMS application finished. Exiting.
NORMAL TERMINATION
     Total cpu time:    1078.91
  Total system time:       4.67
 Total elapsed time:    1089.62
NORMAL TERMINATION
