17
Coordinates from ORCA-job ts_scan Relaxed Surface Scan Step 1 E -127.386030271758
  C      -0.741051      0.966884     -0.815930
  C      -1.069394     -0.072935     -0.068752
  C      -2.252477     -0.056757      0.864972
  F      -3.078785     -1.076252      0.617271
  F      -2.958686      1.069041      0.758349
  F      -1.859042     -0.166041      2.138754
  O      -0.427310     -1.246730      0.042384
  C       0.915130     -1.292856     -0.431269
  C       1.749191     -0.343232      0.355975
  C       2.173259      0.811807     -0.121130
  H      -1.363159      1.846887     -0.790735
  H       0.077468      0.952128     -1.506774
  H       1.222308     -2.325105     -0.287002
  H       0.943746     -1.072959     -1.499809
  H       1.894222     -0.589794      1.401300
  H       2.722106      1.506926      0.501067
  H       2.052473      1.088986     -1.158670
>
17
Coordinates from ORCA-job ts_scan Relaxed Surface Scan Step 2 E -127.383255640318
  C      -0.713150      0.951567     -0.847689
  C      -1.053578     -0.082188     -0.098184
  C      -2.203439     -0.035058      0.874360
  F      -3.061652     -1.035037      0.657587
  F      -2.885514      1.107424      0.787975
  F      -1.770408     -0.150830      2.134841
  O      -0.432725     -1.269162     -0.007622
  C       0.923898     -1.317186     -0.448302
  C       1.723584     -0.358543      0.361529
  C       2.081484      0.832269     -0.082322
  H      -1.307094      1.850256     -0.802416
  H       0.070996      0.907091     -1.575889
  H       1.226974     -2.348483     -0.291665
  H       0.979337     -1.100690     -1.516279
  H       1.868380     -0.618625      1.403520
  H       2.583144      1.540228      0.565249
  H       1.969761      1.126966     -1.114693
>
17
Coordinates from ORCA-job ts_scan Relaxed Surface Scan Step 3 E -127.379815965395
  C      -0.683744      0.940732     -0.872280
  C      -1.040164     -0.090556     -0.127265
  C      -2.155314     -0.017127      0.882283
  F      -3.041182     -0.999150      0.698028
  F      -2.815346      1.139696      0.815320
  F      -1.682710     -0.138890      2.128359
  O      -0.439283     -1.289405     -0.060263
  C       0.932549     -1.338551     -0.464099
  C       1.695409     -0.370240      0.367161
  C       1.991353      0.847635     -0.050583
  H      -1.246902      1.857987     -0.806720
  H       0.066423      0.868571     -1.633246
  H       1.231049     -2.368688     -0.293697
  H       1.016381     -1.126402     -1.530932
  H       1.830549     -0.636325      1.408842
  H       2.442240      1.568782      0.619866
  H       1.898691      1.151931     -1.080773
>
17
Coordinates from ORCA-job ts_scan Relaxed Surface Scan Step 4 E -127.375609399614
  C      -0.652661      0.935064     -0.887873
  C      -1.029314     -0.097612     -0.154862
  C      -2.110077     -0.003635      0.888625
  F      -3.018417     -0.970161      0.736574
  F      -2.751280      1.164854      0.840215
  F      -1.599442     -0.131031      2.119761
  O      -0.446590     -1.306632     -0.113495
  C       0.941009     -1.357291     -0.477730
  C       1.665731     -0.378740      0.372583
  C       1.905755      0.858023     -0.028471
  H      -1.184258      1.869390     -0.801044
  H       0.064773      0.840203     -1.677356
  H       1.233936     -2.386145     -0.292314
  H       1.054004     -1.150283     -1.542706
  H       1.780260     -0.643155      1.417055
  H       2.302294      1.593850      0.660604
  H       1.844277      1.163302     -1.059565
>
17
Coordinates from ORCA-job ts_scan Relaxed Surface Scan Step 5 E -127.370575975021
  C      -0.620062      0.934364     -0.894725
  C      -1.019402     -0.101990     -0.178302
  C      -2.069458      0.005754      0.893845
  F      -2.996454     -0.946214      0.766132
  F      -2.693276      1.184520      0.865145
  F      -1.527242     -0.131788      2.110995
  O      -0.452010     -1.318230     -0.161473
  C       0.950112     -1.373939     -0.487816
  C       1.639235     -0.385325      0.376881
  C       1.826242      0.864576     -0.016814
  H      -1.123217      1.882374     -0.786731
  H       0.064721      0.823379     -1.710685
  H       1.233878     -2.402028     -0.286228
  H       1.090250     -1.173786     -1.550726
  H       1.724669     -0.642277      1.425924
  H       2.165251      1.617195      0.685165
  H       1.806761      1.163416     -1.050585
>
17
Coordinates from ORCA-job ts_scan Relaxed Surface Scan Step 6 E -127.364656889613
  C      -0.586832      0.938192     -0.894924
  C      -1.011660     -0.104492     -0.200641
  C      -2.031950      0.011998      0.898184
  F      -2.973280     -0.928299      0.793783
  F      -2.641744      1.198635      0.888994
  F      -1.459427     -0.135006      2.101196
  O      -0.457391     -1.325750     -0.209266
  C       0.960192     -1.388774     -0.495234
  C       1.614060     -0.390920      0.381634
  C       1.751348      0.867473     -0.012930
  H      -1.062984      1.897537     -0.764809
  H       0.064378      0.816056     -1.736577
  H       1.231502     -2.416502     -0.276959
  H       1.127944     -1.196217     -1.555346
  H       1.661727     -0.636219      1.435788
  H       2.029538      1.638251      0.696415
  H       1.784580      1.154035     -1.049309
>
17
Coordinates from ORCA-job ts_scan Relaxed Surface Scan Step 7 E -127.357860133044
  C      -0.552992      0.945308     -0.890072
  C      -1.005130     -0.104951     -0.220675
  C      -1.998186      0.016301      0.901866
  F      -2.949547     -0.915529      0.818363
  F      -2.597476      1.208563      0.910398
  F      -1.398524     -0.138509      2.091510
  O      -0.461433     -1.328107     -0.253472
  C       0.971845     -1.402025     -0.500122
  C       1.593190     -0.396712      0.385912
  C       1.680371      0.867723     -0.014816
  H      -1.006077      1.912979     -0.738950
  H       0.062463      0.816579     -1.757543
  H       1.225950     -2.430114     -0.265139
  H       1.164816     -1.218202     -1.557229
  H       1.599799     -0.629333      1.443955
  H       1.897271      1.655763      0.697194
  H       1.773660      1.140266     -1.051182
>
17
Coordinates from ORCA-job ts_scan Relaxed Surface Scan Step 8 E -127.350329846151
  C      -0.518341      0.953943     -0.881646
  C      -1.000370     -0.104551     -0.239141
  C      -1.968183      0.019555      0.904892
  F      -2.925504     -0.907237      0.842227
  F      -2.560681      1.215311      0.927966
  F      -1.343216     -0.139108      2.081881
  O      -0.465373     -1.326678     -0.294400
  C       0.984968     -1.413611     -0.503032
  C       1.576163     -0.402896      0.389630
  C       1.612556      0.866334     -0.020483
  H      -0.952484      1.927440     -0.711535
  H       0.058085      0.822113     -1.775629
  H       1.218131     -2.442488     -0.252102
  H       1.199658     -1.239209     -1.557174
  H       1.541338     -0.623772      1.449635
  H       1.772080      1.668327      0.691242
  H       1.771168      1.126527     -1.052332
>
17
Coordinates from ORCA-job ts_scan Relaxed Surface Scan Step 9 E -127.342324851052
  C      -0.482634      0.962387     -0.871002
  C      -0.998080     -0.104373     -0.256213
  C      -1.942737      0.023080      0.907203
  F      -2.902004     -0.902217      0.867055
  F      -2.532385      1.220337      0.939473
  F      -1.293937     -0.133033      2.072490
  O      -0.470743     -1.322438     -0.331455
  C       1.000282     -1.423680     -0.504635
  C       1.563610     -0.410258      0.392021
  C       1.546994      0.864159     -0.027818
  H      -0.902752      1.939595     -0.685548
  H       0.049748      0.829675     -1.792717
  H       1.209002     -2.453670     -0.239227
  H       1.230609     -1.258794     -1.556440
  H       1.492041     -0.622593      1.451918
  H       1.658188      1.674259      0.683976
  H       1.774794      1.117566     -1.049081
>
17
Coordinates from ORCA-job ts_scan Relaxed Surface Scan Step 10 E -127.334362764454
  C      -0.446112      0.971163     -0.858885
  C      -0.999439     -0.104892     -0.272793
  C      -1.922466      0.027317      0.909040
  F      -2.879802     -0.899661      0.893683
  F      -2.513101      1.224302      0.945372
  F      -1.250353     -0.119601      2.063077
  O      -0.482246     -1.315299     -0.370089
  C       1.021162     -1.433259     -0.504236
  C       1.555050     -0.419819      0.392746
  C       1.483257      0.861671     -0.036968
  H      -0.856918      1.950248     -0.660412
  H       0.033793      0.840260     -1.810792
  H       1.197549     -2.464577     -0.223726
  H       1.259914     -1.279074     -1.554833
  H       1.454854     -0.626576      1.451370
  H       1.559487      1.673280      0.677764
  H       1.785370      1.114518     -1.040316
>
17
Coordinates from ORCA-job ts_scan Relaxed Surface Scan Step 11 E -127.375286881862
  C      -0.624714      0.740732     -0.980923
  C      -1.558191     -0.075019     -0.204717
  C      -2.099317      0.523884      1.116488
  F      -3.357005      0.171327      1.325340
  F      -2.034570      1.859926      1.133430
  F      -1.363422      0.074734      2.141482
  O      -1.874114     -1.204367     -0.461266
  C       2.427904     -1.400148     -0.604367
  C       1.445738     -0.853199      0.097726
  C       1.095609      0.569512      0.024646
  H      -0.824199      1.804657     -0.986916
  H      -0.417470      0.309564     -1.952124
  H       2.659166     -2.453115     -0.521328
  H       3.036105     -0.810057     -1.279297
  H       0.855990     -1.472684      0.763487
  H       0.872790      1.043096      0.974581
  H       1.759697      1.171158     -0.586243
>
17
Coordinates from ORCA-job ts_scan Relaxed Surface Scan Step 12 E -127.387580221596
  C      -0.591831      0.711389     -0.960620
  C      -1.573693     -0.072370     -0.196924
  C      -2.090768      0.533375      1.131284
  F      -3.357675      0.219826      1.343369
  F      -1.982637      1.866413      1.154557
  F      -1.364186      0.054228      2.148764
  O      -1.948839     -1.175926     -0.477082
  C       2.456770     -1.377545     -0.591314
  C       1.431934     -0.859272      0.068305
  C       1.045600      0.560753     -0.008713
  H      -0.800869      1.774170     -0.996838
  H      -0.411855      0.268293     -1.932734
  H       2.708038     -2.425789     -0.505379
  H       3.081051     -0.769144     -1.234649
  H       0.828816     -1.498738      0.703173
  H       0.846243      1.021826      0.953907
  H       1.723898      1.168512     -0.599107
