17
Coordinates from ORCA-job ts_scan Relaxed Surface Scan Step 1 E -56.211202558696
  C      -0.866212      1.002599      0.908095
  C      -1.027728     -0.009117      0.063809
  C      -2.136221     -0.124223     -0.923600
  O      -0.189811     -1.070063     -0.047056
  C       0.822062     -1.233910      0.915177
  C       1.949903     -0.263346      0.806930
  C       1.980199      0.771726     -0.010947
  H      -1.610841      1.784366      0.919855
  H      -0.049429      1.083161      1.602603
  H      -1.731992     -0.178293     -1.933737
  H      -2.699575     -1.039504     -0.747447
  H      -2.806997      0.726573     -0.854472
  H       1.194214     -2.248601      0.777891
  H       0.382850     -1.177336      1.916903
  H       2.769219     -0.439969      1.496116
  H       2.834592      1.435607     -0.021038
  H       1.185768      0.980331     -0.709410
>
17
Coordinates from ORCA-job ts_scan Relaxed Surface Scan Step 2 E -56.208529012554
  C      -0.823643      1.005608      0.886324
  C      -1.013989     -0.016726      0.061239
  C      -2.127554     -0.120556     -0.921494
  O      -0.198091     -1.095810     -0.038139
  C       0.823962     -1.254150      0.914141
  C       1.932917     -0.262752      0.808590
  C       1.930821      0.784921      0.006422
  H      -1.554427      1.801039      0.886345
  H      -0.014896      1.078075      1.589102
  H      -1.728557     -0.205662     -1.931566
  H      -2.715933     -1.015816     -0.725873
  H      -2.774194      0.749627     -0.867172
  H       1.208359     -2.262736      0.766884
  H       0.390856     -1.211500      1.919541
  H       2.756754     -0.424243      1.495920
  H       2.769690      1.469059      0.004443
  H       1.137926      0.981623     -0.695030
>
17
Coordinates from ORCA-job ts_scan Relaxed Surface Scan Step 3 E -56.204863100770
  C      -0.780412      1.008337      0.867980
  C      -1.000497     -0.023740      0.062695
  C      -2.116200     -0.113602     -0.918934
  O      -0.208751     -1.121775     -0.024827
  C       0.826658     -1.275677      0.913814
  C       1.913774     -0.260863      0.810101
  C       1.878486      0.793167      0.017119
  H      -1.496294      1.817698      0.853854
  H       0.015227      1.071377      1.584199
  H      -1.720111     -0.222435     -1.927963
  H      -2.726248     -0.991439     -0.710976
  H      -2.741867      0.772387     -0.875965
  H       1.224467     -2.276636      0.751815
  H       0.403482     -1.249614      1.924222
  H       2.736266     -0.396913      1.504317
  H       2.697289      1.501818      0.026160
  H       1.094732      0.967912     -0.697937
>
17
Coordinates from ORCA-job ts_scan Relaxed Surface Scan Step 4 E -56.200028826078
  C      -0.737071      1.010737      0.852871
  C      -0.987789     -0.030672      0.068565
  C      -2.102368     -0.103787     -0.915702
  O      -0.222100     -1.148114     -0.006257
  C       0.831231     -1.298786      0.913096
  C       1.893326     -0.258070      0.811061
  C       1.823158      0.797518      0.022351
  H      -1.436482      1.834585      0.821323
  H       0.040140      1.064017      1.587462
  H      -1.706888     -0.234599     -1.922491
  H      -2.735075     -0.963385     -0.699297
  H      -2.706075      0.797766     -0.884333
  H       1.242518     -2.290684      0.730848
  H       0.423304     -1.293689      1.930207
  H       2.707485     -0.359144      1.520678
  H       2.615470      1.536030      0.045589
  H       1.057217      0.940275     -0.716296
>
17
Coordinates from ORCA-job ts_scan Relaxed Surface Scan Step 5 E -56.193919857271
  C      -0.693417      1.013670      0.842762
  C      -0.975514     -0.036782      0.080591
  C      -2.084251     -0.089991     -0.911577
  O      -0.238703     -1.174358      0.019730
  C       0.838753     -1.324442      0.911587
  C       1.871871     -0.254833      0.811018
  C       1.763273      0.795961      0.019795
  H      -1.374531      1.852406      0.789667
  H       0.057420      1.056575      1.602878
  H      -1.685836     -0.241962     -1.914420
  H      -2.741557     -0.929937     -0.691228
  H      -2.664362      0.827252     -0.893035
  H       1.262073     -2.305551      0.701039
  H       0.453297     -1.345654      1.937175
  H       2.666762     -0.307496      1.546964
  H       2.517614      1.573049      0.060717
  H       1.027111      0.892091     -0.753990
>
17
Coordinates from ORCA-job ts_scan Relaxed Surface Scan Step 6 E -56.186520284674
  C      -0.649364      1.019562      0.837929
  C      -0.964113     -0.041056      0.100828
  C      -2.060584     -0.071776     -0.905973
  O      -0.260493     -1.199730      0.057786
  C       0.850367     -1.353608      0.909340
  C       1.849532     -0.251451      0.810821
  C       1.697637      0.786758      0.008841
  H      -1.309040      1.873962      0.757506
  H       0.065879      1.052136      1.630795
  H      -1.653845     -0.243564     -1.902541
  H      -2.744067     -0.891187     -0.687892
  H      -2.615909      0.860835     -0.901902
  H       1.282542     -2.320608      0.655988
  H       0.498372     -1.411505      1.945119
  H       2.609139     -0.239683      1.584528
  H       2.397015      1.612782      0.068767
  H       1.006933      0.818133     -0.810268
>
17
Coordinates from ORCA-job ts_scan Relaxed Surface Scan Step 7 E -56.178023060836
  C      -0.605350      1.031485      0.834467
  C      -0.954114     -0.042351      0.127986
  C      -2.033077     -0.052297     -0.898241
  O      -0.288075     -1.221677      0.110030
  C       0.866522     -1.385647      0.905102
  C       1.828359     -0.249386      0.811831
  C       1.628339      0.772116     -0.004200
  H      -1.240311      1.901392      0.719448
  H       0.066704      1.057508      1.664192
  H      -1.614204     -0.247601     -1.885762
  H      -2.744110     -0.848975     -0.684056
  H      -2.561949      0.895446     -0.913523
  H       1.299690     -2.333809      0.589932
  H       0.561123     -1.493946      1.950792
  H       2.535514     -0.163645      1.629016
  H       2.256629      1.651928      0.073975
  H       0.998312      0.729459     -0.871318
>
17
Coordinates from ORCA-job ts_scan Relaxed Surface Scan Step 8 E -56.168844799288
  C      -0.562816      1.053818      0.825824
  C      -0.949278     -0.039659      0.162779
  C      -2.005445     -0.037157     -0.887496
  O      -0.328992     -1.239506      0.188963
  C       0.886062     -1.418937      0.898661
  C       1.806769     -0.248657      0.818076
  C       1.559174      0.757513     -0.010453
  H      -1.165060      1.939577      0.660848
  H       0.058772      1.081990      1.694529
  H      -1.570427     -0.265398     -1.861331
  H      -2.744953     -0.807853     -0.674961
  H      -2.505828      0.925017     -0.932910
  H       1.310142     -2.334904      0.489688
  H       0.648436     -1.605133      1.949537
  H       2.450142     -0.092691      1.676201
  H       2.113040      1.684208      0.083311
  H       1.000264      0.647772     -0.921592
>
17
Coordinates from ORCA-job ts_scan Relaxed Surface Scan Step 9 E -56.168036818828
  C      -0.553708      1.288463      0.775599
  C      -1.023280      0.071514      0.468713
  C      -1.794073     -0.244646     -0.765608
  O      -0.567443     -0.995757      1.154216
  C       0.787042     -1.432166      0.692552
  C       1.692563     -0.293737      0.855942
  C       1.477918      0.790336      0.094154
  H      -0.885278      2.148759      0.208071
  H      -0.099103      1.481702      1.731528
  H      -1.192699     -0.851835     -1.447210
  H      -2.679250     -0.828205     -0.516843
  H      -2.105073      0.658407     -1.284468
  H       0.683018     -1.758506     -0.342425
  H       1.015392     -2.286429      1.319916
  H       2.201317     -0.187442      1.806320
  H       1.967276      1.731443      0.314305
  H       1.075380      0.708100     -0.905087
>
17
Coordinates from ORCA-job ts_scan Relaxed Surface Scan Step 10 E -56.161620616230
  C      -0.511985      1.278265      0.782566
  C      -1.023763      0.063712      0.485600
  C      -1.775423     -0.230359     -0.766242
  O      -0.584751     -0.997178      1.164259
  C       0.808874     -1.442770      0.695193
  C       1.687792     -0.298766      0.839231
  C       1.408276      0.791551      0.085638
  H      -0.837223      2.143680      0.218466
  H      -0.102629      1.469961      1.760097
  H      -1.161900     -0.831215     -1.443565
  H      -2.665558     -0.815907     -0.541678
  H      -2.074654      0.679762     -1.279623
  H       0.673460     -1.781936     -0.330566
  H       1.028879     -2.284816      1.340415
  H       2.192601     -0.168664      1.788703
  H       1.893704      1.738589      0.288864
  H       1.044300      0.686091     -0.927684
>
17
Coordinates from ORCA-job ts_scan Relaxed Surface Scan Step 11 E -56.201779134677
  C      -0.490240      1.462600      0.644674
  C      -1.384016      0.282650      0.660705
  C      -1.867162     -0.230748     -0.664491
  O      -1.672603     -0.268205      1.698078
  C       1.568285     -1.722059      0.354451
  C       1.501422     -0.530442      0.931187
  C       1.313405      0.724533      0.195095
  H      -0.676897      2.180280     -0.147510
  H      -0.374440      1.912824      1.623591
  H      -1.014170     -0.482818     -1.294020
  H      -2.483858     -1.111784     -0.517091
  H      -2.437658      0.539255     -1.182858
  H       1.506670     -1.832948     -0.721738
  H       1.692502     -2.623983      0.937775
  H       1.559286     -0.459012      2.011267
  H       1.952307      1.541007      0.515695
  H       1.307168      0.618849     -0.885136
