
 *******************************************************************************
 *                                                                             *
 *  --------------------------------                                           *
 *   Amsterdam Modeling Suite (AMS)              2026.103                      *
 *  --------------------------------                                           *
 *                                               r260501 2026-05-01 873454b5   *
 *                                                                             *
 *                                                                             *
 *                              =================                              *
 *                              |               |                              *
 *                              |     A M S     |                              *
 *                              |               |                              *
 *                              =================                              *
 *                                                                             *
 *                                                                             *
 *   Online information and documentation:  https://www.scm.com/support/       *
 *   E-mail:  support@scm.com   info@scm.com                                   *
 *                                                                             *
 *   Scientific publications using AMS results must be properly referenced     *
 *   See the User Manuals (or the web site) for recommended citations          *
 *   The terms and conditions of the End User License Agreement apply to       *
 *   the use of AMS, https://www.scm.com/license-terms/                        *
 *                                                                             *
 **********************  x86_64_linux_intel / intelmpi  ************************
 
 Licensed to: Jong-June Jeon / University of Seoul 2026-06-02 13:44:15
 SCM User ID: u30731
  
 AMS 2026.103  RunTime: Jun04-2026 08:09:23  ShM Nodes: 1  Procs: 1

 AMS jobname: c3_eda
 AMS jobid  : 1120456570

 Start   directory: /gpfs/home1/yeseo1ee/projects/eda-asm-prediction/ADF_800/adf_outputs/batch_004/qmrxn20_e2_B_E_E_C_B_B/
 Results directory: /gpfs/home1/yeseo1ee/projects/eda-asm-prediction/ADF_800/adf_outputs/batch_004/qmrxn20_e2_B_E_E_C_B_B/c3_eda.results/
 Scratch directory: /tmp/amstmp_c3_eda_kid0.1120456570/

 RNG seed: -1313986640 411716449 -1800188497 -265122958 1999140872 1685196526 -907889813 1680342956



                      ************************************************************************
                      *  ADF 2026.103  RunTime: Jun04-2026 08:09:23  ShM Nodes: 1  Procs: 1  *
                      ************************************************************************
  

       ****************************
       * SINGLE POINT CALCULATION *
       ****************************

--------
Geometry
--------
Formula: C3H5ClFN4O2
Atoms
  Index Symbol   x (angstrom)   y (angstrom)   z (angstrom)
      1      F    -2.56396638     0.74283156     1.26887168 adf.f=fA
      2      H    -1.56059027     0.18649998     1.20992178 adf.f=fA
      3      C    -0.03759101     0.02496289    -0.43065036 adf.f=fB
      4      C    -0.19133470    -0.00887301     1.06362228 adf.f=fB
      5     Cl     1.69825877     0.13636628    -0.96787364 adf.f=fB
      6      N    -0.74286918     1.10291606    -1.05899135 adf.f=fB
      7      H    -0.29905425     1.93538959    -0.68120888 adf.f=fB
      8      H    -1.67382543     1.08463373    -0.64012972 adf.f=fB
      9      N     0.26391168     1.27018120     1.60623927 adf.f=fB
     10      H     1.16513940     1.18488989     2.06060213 adf.f=fB
     11      H    -0.42328871     1.59952725     2.27183944 adf.f=fB
     12      C     0.35482146    -1.16074393     1.72466912 adf.f=fB
     13      N     0.78531402    -2.06858871     2.34421818 adf.f=fB
     14      N    -0.59709579    -1.28797368    -0.98474237 adf.f=fB
     15      O    -1.78946702    -1.27104368    -1.27370358 adf.f=fB
     16      O     0.13487740    -2.27017542    -1.03246400 adf.f=fB

Total System Charge             -1.00000


----------------
ADF Engine Input
----------------
 
   Basis
     Type TZ2P
     Core None
   End
   XC
     GGA BLYP
     Dispersion GRIMME3 BJDAMP
   End
   Symmetry NOSYM
   NumericalQuality Normal
   Unrestricted No
   SCF
     Iterations 200
     Converge 1.0e-6
   End
   fragments
     fA c1_fragA_ts.results/adf.rkf
     fB c2_fragB_ts.results/adf.rkf
   end
   etsnocv
     enocv 0.05
     ekmin 0.5
   end
   print etslowdin
   Save TAPE21
 

 Title: *** (NO TITLE) ***

 *** adf ***



 ===========================
 A T T A C H E D   F I L E S
 ===========================
  



 ===============================
 M O D E L   P A R A M E T E R S
 ===============================
  
 DENSITY FUNCTIONAL POTENTIAL (scf)
    LDA:                               Exchange only                           == Not Default ==
    Gradient Corrections:              Becke88 LYP                             == Not Default ==

 SPIN  (restricted / unrestr.)
    Molecule:                          Restricted                               
    Fragments:                         Restricted                               

 OTHER ASPECTS
    Relativistic Corrections:          scalar (ZORA,MAPA)                       

    Nuclear Charge Density Model:      Point Charge Nuclei                      
    Core Treatment:                    Frozen Orbital(s)                        

    Hyperfine or Zeeman Interaction:   ---                                      

 Settings for Grimme D3 dispersion correction

      damping                        BJ
      s6                          1.000
      s8                          2.700
      a1                          0.430
      a2                          4.236

 Other (technical) parameters

      alpha                      14.000
      version                         4
 


 Fragment File(s)
 ----------------
 fA:
         file : c1_fragA_ts.results/adf.rkf
         jobid: 1560269236
         title: *** adf ***
 fB:
         file : c2_fragB_ts.results/adf.rkf
         jobid: 1820526768
         title: *** adf ***



 ===============
 G E O M E T R Y  ***  3D  Molecule  ***
 ===============
  

 ATOMS
 =====                            X Y Z                    CHARGE
                                (Angstrom)             Nucl     +Core       At.Mass
                       --------------------------    ----------------       -------
    1  F              -2.5640    0.7428    1.2689      9.00      9.00       18.9984
    2  H              -1.5606    0.1865    1.2099      1.00      1.00        1.0078
    3  C              -0.0376    0.0250   -0.4307      6.00      6.00       12.0000
    4  C              -0.1913   -0.0089    1.0636      6.00      6.00       12.0000
    5  Cl              1.6983    0.1364   -0.9679     17.00     17.00       34.9689
    6  N              -0.7429    1.1029   -1.0590      7.00      7.00       14.0031
    7  H              -0.2991    1.9354   -0.6812      1.00      1.00        1.0078
    8  H              -1.6738    1.0846   -0.6401      1.00      1.00        1.0078
    9  N               0.2639    1.2702    1.6062      7.00      7.00       14.0031
   10  H               1.1651    1.1849    2.0606      1.00      1.00        1.0078
   11  H              -0.4233    1.5995    2.2718      1.00      1.00        1.0078
   12  C               0.3548   -1.1607    1.7247      6.00      6.00       12.0000
   13  N               0.7853   -2.0686    2.3442      7.00      7.00       14.0031
   14  N              -0.5971   -1.2880   -0.9847      7.00      7.00       14.0031
   15  O              -1.7895   -1.2710   -1.2737      8.00      8.00       15.9949
   16  O               0.1349   -2.2702   -1.0325      8.00      8.00       15.9949


 FRAGMENTS
 =========                                     Atoms in this Fragment     Cart. coord.s (Angstrom)
                                               -------------------------------------------------------
    1  fA                                                1  F           -2.5640    0.7428    1.2689
                                                         2  H           -1.5606    0.1865    1.2099
    2  fB                                                3  C           -0.0376    0.0250   -0.4307
                                                         4  C           -0.1913   -0.0089    1.0636
                                                        12  C            0.3548   -1.1607    1.7247
                                                         5  Cl           1.6983    0.1364   -0.9679
                                                         6  N           -0.7429    1.1029   -1.0590
                                                         9  N            0.2639    1.2702    1.6062
                                                        13  N            0.7853   -2.0686    2.3442
                                                        14  N           -0.5971   -1.2880   -0.9847
                                                         7  H           -0.2991    1.9354   -0.6812
                                                         8  H           -1.6738    1.0846   -0.6401
                                                        10  H            1.1651    1.1849    2.0606
                                                        11  H           -0.4233    1.5995    2.2718
                                                        15  O           -1.7895   -1.2710   -1.2737
                                                        16  O            0.1349   -2.2702   -1.0325


 Interatomic Distance Matrix (Angstrom)
 --------------------------------------

   1)     0.000
   2)     1.149   0.000
   3)     3.128   2.244   0.000
   4)     2.497   1.391   1.503   0.000
   5)     4.852   3.920   1.820   2.778   0.000
   6)     2.977   2.580   1.433   2.459   2.627   0.000
   7)     3.218   2.868   1.944   2.615   2.703   1.016   0.000
   8)     2.134   2.060   1.961   2.509   3.518   1.021   1.617   0.000
   9)     2.896   2.159   2.406   1.462   3.157   2.854   2.448   2.972   0.000
  10)     3.838   3.025   3.000   2.064   3.249   3.658   3.198   3.920   1.013   0.000
  11)     2.514   2.102   3.151   2.025   4.140   3.383   2.975   3.211   1.012   1.655
          0.000
  12)     3.514   2.398   2.491   1.436   3.277   3.752   3.975   3.840   2.436   2.504
          2.920   0.000
  13)     4.503   3.446   3.572   2.615   4.082   4.896   5.134   4.990   3.459   3.288
          3.863   1.180   0.000
  14)     3.615   2.814   1.531   2.449   2.701   2.396   3.251   2.628   3.741   4.301
          4.356   2.875   3.688   0.000
  15)     3.335   2.889   2.337   3.100   3.773   2.603   3.585   2.442   4.355   5.087
          4.762   3.688   4.512   1.227   0.000
  16)     4.654   3.733   2.379   3.101   2.871   3.486   4.242   3.831   4.417   4.750
          5.119   2.980   3.445   1.226   2.182   0.000

 Min. Distance =    1.0118
 Max. Distance =    5.1343



 =====================================
 S Y M M E T R Y ,   E L E C T R O N S
 =====================================
  
 Symmetry: NOSYM

 Irreducible Representations, including subspecies
 -------------------------------------------------
 A


 Configuration of Valence Electrons
 ==================================
 ( determined in the SCF procedure )

 Total:   94

 Net Charge: -1 (Nuclei minus Electrons)

 Aufbau principle for MO occupations will be applied through SCF cycle no.     100
 Thereafter, the program will assign electrons to MOs that are spatially
 similar to the occupied MOs in a "reference" cycle ("KeepOrbitals").
 The reference cycle is always the PREVIOUS cycle: it will evolve with
 the SCF procedure.
 ***************************************************************************************************



                                      ****************************************
                                      *  B U I L D : (Fragments, Functions)  *
                                      ****************************************
  

 The individual fragments are copies of the corresponding 'Master' fragments defined on the fragment files.
 However, they may have been rotated (and translated) with respect to the Master. The local coordinate axes
 of each fragment (which define for instance the spatial orientation in the current molecule of a fragment
 P:x orbital) are not necessarily those of the molecule.
 The local frame (if different from the molecular one) is printed to enable an interpretation of the expan-
 sion of an MO in Fragment Orbitals.



                                              ************************
                                              *  Fragment Type : fA  *
                                              ************************
  

 Fragment no.    1   (in the list of all fragments)
 -----------------
 The local coordinate frame is identical to the molecular frame.

 Check Atomic Coordinates:

                  Master (on file)          After Computed Tranformation               As specified on Input
           ----------------------------     ----------------------------     ---------------------------------
     1)    -2.56397   0.74283   1.26887     -2.56397   0.74283   1.26887       1  -2.56397   0.74283   1.26887
     2)    -1.56059   0.18650   1.20992     -1.56059   0.18650   1.20992       2  -1.56059   0.18650   1.20992



                                              ************************
                                              *  Fragment Type : fB  *
                                              ************************
  

 Fragment no.    2   (in the list of all fragments)
 -----------------
 The local coordinate frame is identical to the molecular frame.

 Check Atomic Coordinates:

                  Master (on file)          After Computed Tranformation               As specified on Input
           ----------------------------     ----------------------------     ---------------------------------
     1)    -0.03759   0.02496  -0.43065     -0.03759   0.02496  -0.43065       3  -0.03759   0.02496  -0.43065
     2)    -0.19133  -0.00887   1.06362     -0.19133  -0.00887   1.06362       4  -0.19133  -0.00887   1.06362
     3)     0.35482  -1.16074   1.72467      0.35482  -1.16074   1.72467      12   0.35482  -1.16074   1.72467
     4)     1.69826   0.13637  -0.96787      1.69826   0.13637  -0.96787       5   1.69826   0.13637  -0.96787
     5)    -0.74287   1.10292  -1.05899     -0.74287   1.10292  -1.05899       6  -0.74287   1.10292  -1.05899
     6)     0.26391   1.27018   1.60624      0.26391   1.27018   1.60624       9   0.26391   1.27018   1.60624
     7)     0.78531  -2.06859   2.34422      0.78531  -2.06859   2.34422      13   0.78531  -2.06859   2.34422
     8)    -0.59710  -1.28797  -0.98474     -0.59710  -1.28797  -0.98474      14  -0.59710  -1.28797  -0.98474
     9)    -0.29905   1.93539  -0.68121     -0.29905   1.93539  -0.68121       7  -0.29905   1.93539  -0.68121
    10)    -1.67383   1.08463  -0.64013     -1.67383   1.08463  -0.64013       8  -1.67383   1.08463  -0.64013
    11)     1.16514   1.18489   2.06060      1.16514   1.18489   2.06060      10   1.16514   1.18489   2.06060
    12)    -0.42329   1.59953   2.27184     -0.42329   1.59953   2.27184      11  -0.42329   1.59953   2.27184
    13)    -1.78947  -1.27104  -1.27370     -1.78947  -1.27104  -1.27370      15  -1.78947  -1.27104  -1.27370
    14)     0.13488  -2.27018  -1.03246      0.13488  -2.27018  -1.03246      16   0.13488  -2.27018  -1.03246



 =======
 S F O s  ***  (Symmetrized Fragment Orbitals)  ***
 =======
  
 SFOs are linear combinations of (valence) Fragment Orbitals (FOs), such that the SFOs transform as the
 irreducible representations of the (molecular) symmetry group. Each SFO is therefore characterized by
 an irrep of the molecule and by a few (or only one) generating FOs.
 The SFOs constitute a symmetry-adapted basis for the Fock matrix. The MO eigenvector coefficients in
 this basis provide a direct interpretation of the MOs in terms of Frontier Orbital Theory.

 The SFOs are combined with auxiliary Core Functions (CFs) to ensure orthogonalization on the (frozen)
 Core Orbitals (COs). The Core-orthogonalized SFOs (CSFOs) constitute the true Fock basis.

 The FOs, and hence also the (C)SFOs are combinations of the elementary basis functions (BAS). The basis
 functions that participate in the description of the SFOs depend on the irrep. The indices of the
 involved functions are printed below for each irrep.
 (The complete list of primitive basis functions is printed in another section)

 Total nr. of (C)SFOs (summation over all irreps) :   349

 NOTE: a (C)SFO that is defined as a combination of more than one FO is usually NOT normalized.



                                       === A ===
 Nr. of SFOs :  349
 Cartesian basis functions that participate in this irrep (total number =   398) :
      1     2     3     4     5     6     9    12     7    10
     13     8    11    14    15    16    17    18    19    20
     21    22    23    24    25    26    27    28    29    30
     31    32    33    34    35    36    37    38    39    40
     41    42    43    44    45    46    47    48    51    54
     49    52    55    50    53    56    57    58    59    60
     61    62    63    64    65    66    67    68    69    70
     71    72    73    74    75    76    77    78    81    84
     79    82    85    80    83    86    87    88    89    90
     91    92    93    94    95    96    97    98    99   100
    101   102   103   104   105   106   107   108   111   114
    109   112   115   110   113   116   117   118   119   120
    121   122   123   124   125   126   127   128   129   130
    131   132   133   134   135   136   143   144   145   137
    140   146   149   152   138   141   147   150   153   139
    142   148   151   154   155   156   157   158   159   160
    161   162   163   164   165   166   167   168   169   170
    171   172   173   174   175   176   179   182   177   180
    183   178   181   184   185   186   187   188   189   190
    191   192   193   194   195   196   197   198   199   200
    201   202   203   204   205   206   209   212   207   210
    213   208   211   214   215   216   217   218   219   220
    221   222   223   224   225   226   227   228   229   230
    231   232   233   234   235   236   239   242   237   240
    243   238   241   244   245   246   247   248   249   250
    251   252   253   254   255   256   257   258   259   260
    261   262   263   264   265   266   269   272   267   270
    273   268   271   274   275   276   277   278   279   280
    281   282   283   284   285   286   287   288   289   290
    291   292   293   294   295   296   297   298   299   300
    301   302   303   304   305   306   307   308   309   310
    311   312   313   314   315   316   317   318   319   320
    321   322   323   324   325   326   327   328   329   330
    331   332   333   334   335   336   337   338   339   340
    341   342   343   344   347   350   345   348   351   346
    349   352   353   354   355   356   357   358   359   360
    361   362   363   364   365   366   367   368   369   370
    371   372   373   374   377   380   375   378   381   376
    379   382   383   384   385   386   387   388   389   390
    391   392   393   394   395   396   397   398

    SFO  (index         Fragment          Generating    Expansion in Fragment Orbitals
  indx  incl.CFs)   Occup   Orb.Energy   FragmentType  Coeff.   Orbital     on Fragment
 --------------------------------------------------------------------------------------
     1       1      2.000     -24.005 au  fA            1.00      1 A               1
                        (    -653.208 eV)
     2       2      2.000      -0.758 au  fA            1.00      2 A               1
                        (     -20.631 eV)
     3       3      2.000      -0.160 au  fA            1.00      3 A               1
                        (      -4.359 eV)
     4       4      2.000      -0.056 au  fA            1.00      4 A               1
                        (      -1.533 eV)
     5       5      2.000      -0.056 au  fA            1.00      5 A               1
                        (      -1.532 eV)
     6       6      1.000       0.154 au  fA            1.00      6 A               1
                        (       4.185 eV)
     7       7       --         0.250 au  fA            1.00      7 A               1
                        (       6.808 eV)
     8       8       --         0.363 au  fA            1.00      8 A               1
                        (       9.875 eV)
     9       9       --         0.644 au  fA            1.00      9 A               1
                        (      17.522 eV)
    10      10       --         0.644 au  fA            1.00     10 A               1
                        (      17.523 eV)
    11      11       --         0.880 au  fA            1.00     11 A               1
                        (      23.954 eV)
    12      12       --         0.880 au  fA            1.00     12 A               1
                        (      23.955 eV)
    13      13       --         0.883 au  fA            1.00     13 A               1
                        (      24.033 eV)
    14      14       --         1.175 au  fA            1.00     14 A               1
                        (      31.977 eV)
    15      15       --         1.346 au  fA            1.00     15 A               1
                        (      36.636 eV)
    16      16       --         1.416 au  fA            1.00     16 A               1
                        (      38.527 eV)
    17      17       --         1.416 au  fA            1.00     17 A               1
                        (      38.528 eV)
    18      18       --         1.759 au  fA            1.00     18 A               1
                        (      47.858 eV)
    19      19       --         1.759 au  fA            1.00     19 A               1
                        (      47.858 eV)
    20      20       --         2.146 au  fA            1.00     20 A               1
                        (      58.387 eV)
    21      21       --         2.842 au  fA            1.00     21 A               1
                        (      77.343 eV)
    22      22       --         2.842 au  fA            1.00     22 A               1
                        (      77.348 eV)
    23      23       --         3.232 au  fA            1.00     23 A               1
                        (      87.949 eV)
    24      24       --         3.420 au  fA            1.00     24 A               1
                        (      93.064 eV)
    25      25       --         3.420 au  fA            1.00     25 A               1
                        (      93.066 eV)
    26      26       --         3.752 au  fA            1.00     26 A               1
                        (     102.092 eV)
    27      27       --         3.752 au  fA            1.00     27 A               1
                        (     102.092 eV)
    28      28       --         4.214 au  fA            1.00     28 A               1
                        (     114.675 eV)
    29      29       --         4.214 au  fA            1.00     29 A               1
                        (     114.678 eV)
    30      30       --         4.250 au  fA            1.00     30 A               1
                        (     115.636 eV)
    31      31       --         4.448 au  fA            1.00     31 A               1
                        (     121.043 eV)
    32      32       --         4.855 au  fA            1.00     32 A               1
                        (     132.100 eV)
    33      33       --         4.855 au  fA            1.00     33 A               1
                        (     132.103 eV)
    34      34       --         5.514 au  fA            1.00     34 A               1
                        (     150.054 eV)
    35      35       --         5.515 au  fA            1.00     35 A               1
                        (     150.058 eV)
    36      36       --         6.200 au  fA            1.00     36 A               1
                        (     168.722 eV)
    37      37       --        52.630 au  fA            1.00     37 A               1
                        (    1432.141 eV)
    38      38      2.000    -101.112 au  fB            1.00      1 A               2
                        (   -2751.393 eV)
    39      39      2.000     -18.857 au  fB            1.00      2 A               2
                        (    -513.115 eV)
    40      40      2.000     -18.856 au  fB            1.00      3 A               2
                        (    -513.098 eV)
    41      41      2.000     -14.266 au  fB            1.00      4 A               2
                        (    -388.203 eV)
    42      42      2.000     -14.080 au  fB            1.00      5 A               2
                        (    -383.129 eV)
    43      43      2.000     -14.061 au  fB            1.00      6 A               2
                        (    -382.611 eV)
    44      44      2.000     -14.060 au  fB            1.00      7 A               2
                        (    -382.605 eV)
    45      45      2.000     -10.097 au  fB            1.00      8 A               2
                        (    -274.744 eV)
    46      46      2.000     -10.048 au  fB            1.00      9 A               2
                        (    -273.432 eV)
    47      47      2.000      -9.994 au  fB            1.00     10 A               2
                        (    -271.958 eV)
    48      48      2.000      -9.266 au  fB            1.00     11 A               2
                        (    -252.136 eV)
    49      49      2.000      -7.034 au  fB            1.00     12 A               2
                        (    -191.395 eV)
    50      50      2.000      -7.023 au  fB            1.00     13 A               2
                        (    -191.097 eV)
    51      51      2.000      -7.022 au  fB            1.00     14 A               2
                        (    -191.076 eV)
    52      52      2.000      -1.156 au  fB            1.00     15 A               2
                        (     -31.467 eV)
    53      53      2.000      -0.996 au  fB            1.00     16 A               2
                        (     -27.093 eV)
    54      54      2.000      -0.916 au  fB            1.00     17 A               2
                        (     -24.938 eV)
    55      55      2.000      -0.870 au  fB            1.00     18 A               2
                        (     -23.666 eV)
    56      56      2.000      -0.846 au  fB            1.00     19 A               2
                        (     -23.017 eV)
    57      57      2.000      -0.795 au  fB            1.00     20 A               2
                        (     -21.640 eV)
    58      58      2.000      -0.732 au  fB            1.00     21 A               2
                        (     -19.929 eV)
    59      59      2.000      -0.672 au  fB            1.00     22 A               2
                        (     -18.295 eV)
    60      60      2.000      -0.569 au  fB            1.00     23 A               2
                        (     -15.476 eV)
    61      61      2.000      -0.534 au  fB            1.00     24 A               2
                        (     -14.533 eV)
    62      62      2.000      -0.526 au  fB            1.00     25 A               2
                        (     -14.314 eV)
    63      63      2.000      -0.511 au  fB            1.00     26 A               2
                        (     -13.913 eV)
    64      64      2.000      -0.492 au  fB            1.00     27 A               2
                        (     -13.379 eV)
    65      65      2.000      -0.487 au  fB            1.00     28 A               2
                        (     -13.244 eV)
    66      66      2.000      -0.461 au  fB            1.00     29 A               2
                        (     -12.531 eV)
    67      67      2.000      -0.454 au  fB            1.00     30 A               2
                        (     -12.359 eV)
    68      68      2.000      -0.414 au  fB            1.00     31 A               2
                        (     -11.253 eV)
    69      69      2.000      -0.356 au  fB            1.00     32 A               2
                        (      -9.684 eV)
    70      70      2.000      -0.348 au  fB            1.00     33 A               2
                        (      -9.466 eV)
    71      71      2.000      -0.338 au  fB            1.00     34 A               2
                        (      -9.202 eV)
    72      72      2.000      -0.319 au  fB            1.00     35 A               2
                        (      -8.683 eV)
    73      73      2.000      -0.307 au  fB            1.00     36 A               2
                        (      -8.343 eV)
    74      74      2.000      -0.304 au  fB            1.00     37 A               2
                        (      -8.274 eV)
    75      75      2.000      -0.291 au  fB            1.00     38 A               2
                        (      -7.915 eV)
    76      76      2.000      -0.282 au  fB            1.00     39 A               2
                        (      -7.667 eV)
    77      77      2.000      -0.272 au  fB            1.00     40 A               2
                        (      -7.415 eV)
    78      78      2.000      -0.264 au  fB            1.00     41 A               2
                        (      -7.196 eV)
    79      79      1.000      -0.234 au  fB            1.00     42 A               2
                        (      -6.358 eV)
    80      80       --        -0.136 au  fB            1.00     43 A               2
                        (      -3.690 eV)
    81      81       --        -0.064 au  fB            1.00     44 A               2
                        (      -1.738 eV)
    82      82       --        -0.060 au  fB            1.00     45 A               2
                        (      -1.629 eV)
    83      83       --        -0.040 au  fB            1.00     46 A               2
                        (      -1.097 eV)
    84      84       --        -0.010 au  fB            1.00     47 A               2
                        (      -0.265 eV)
    85      85       --        -0.003 au  fB            1.00     48 A               2
                        (      -0.074 eV)
    86      86       --         0.016 au  fB            1.00     49 A               2
                        (       0.430 eV)
    87      87       --         0.024 au  fB            1.00     50 A               2
                        (       0.656 eV)
    88      88       --         0.055 au  fB            1.00     51 A               2
                        (       1.486 eV)
    89      89       --         0.074 au  fB            1.00     52 A               2
                        (       2.014 eV)
    90      90       --         0.099 au  fB            1.00     53 A               2
                        (       2.699 eV)
    91      91       --         0.123 au  fB            1.00     54 A               2
                        (       3.355 eV)
    92      92       --         0.134 au  fB            1.00     55 A               2
                        (       3.658 eV)
    93      93       --         0.148 au  fB            1.00     56 A               2
                        (       4.017 eV)
    94      94       --         0.156 au  fB            1.00     57 A               2
                        (       4.245 eV)
    95      95       --         0.172 au  fB            1.00     58 A               2
                        (       4.676 eV)
    96      96       --         0.179 au  fB            1.00     59 A               2
                        (       4.863 eV)
    97      97       --         0.187 au  fB            1.00     60 A               2
                        (       5.087 eV)
    98      98       --         0.199 au  fB            1.00     61 A               2
                        (       5.411 eV)
    99      99       --         0.205 au  fB            1.00     62 A               2
                        (       5.573 eV)
   100     100       --         0.222 au  fB            1.00     63 A               2
                        (       6.037 eV)
   101     101       --         0.228 au  fB            1.00     64 A               2
                        (       6.198 eV)
   102     102       --         0.232 au  fB            1.00     65 A               2
                        (       6.310 eV)
   103     103       --         0.238 au  fB            1.00     66 A               2
                        (       6.485 eV)
   104     104       --         0.250 au  fB            1.00     67 A               2
                        (       6.805 eV)
   105     105       --         0.263 au  fB            1.00     68 A               2
                        (       7.168 eV)
   106     106       --         0.284 au  fB            1.00     69 A               2
                        (       7.740 eV)
   107     107       --         0.292 au  fB            1.00     70 A               2
                        (       7.936 eV)
   108     108       --         0.294 au  fB            1.00     71 A               2
                        (       8.013 eV)
   109     109       --         0.321 au  fB            1.00     72 A               2
                        (       8.731 eV)
   110     110       --         0.328 au  fB            1.00     73 A               2
                        (       8.925 eV)
   111     111       --         0.338 au  fB            1.00     74 A               2
                        (       9.188 eV)
   112     112       --         0.353 au  fB            1.00     75 A               2
                        (       9.616 eV)
   113     113       --         0.369 au  fB            1.00     76 A               2
                        (      10.036 eV)
   114     114       --         0.380 au  fB            1.00     77 A               2
                        (      10.354 eV)
   115     115       --         0.399 au  fB            1.00     78 A               2
                        (      10.850 eV)
   116     116       --         0.407 au  fB            1.00     79 A               2
                        (      11.071 eV)
   117     117       --         0.409 au  fB            1.00     80 A               2
                        (      11.120 eV)
   118     118       --         0.417 au  fB            1.00     81 A               2
                        (      11.352 eV)
   119     119       --         0.438 au  fB            1.00     82 A               2
                        (      11.930 eV)
   120     120       --         0.451 au  fB            1.00     83 A               2
                        (      12.275 eV)
   121     121       --         0.478 au  fB            1.00     84 A               2
                        (      13.019 eV)
   122     122       --         0.497 au  fB            1.00     85 A               2
                        (      13.517 eV)
   123     123       --         0.498 au  fB            1.00     86 A               2
                        (      13.564 eV)
   124     124       --         0.524 au  fB            1.00     87 A               2
                        (      14.250 eV)
   125     125       --         0.535 au  fB            1.00     88 A               2
                        (      14.571 eV)
   126     126       --         0.563 au  fB            1.00     89 A               2
                        (      15.325 eV)
   127     127       --         0.586 au  fB            1.00     90 A               2
                        (      15.945 eV)
   128     128       --         0.596 au  fB            1.00     91 A               2
                        (      16.213 eV)
   129     129       --         0.608 au  fB            1.00     92 A               2
                        (      16.556 eV)
   130     130       --         0.633 au  fB            1.00     93 A               2
                        (      17.230 eV)
   131     131       --         0.676 au  fB            1.00     94 A               2
                        (      18.396 eV)
   132     132       --         0.703 au  fB            1.00     95 A               2
                        (      19.128 eV)
   133     133       --         0.711 au  fB            1.00     96 A               2
                        (      19.334 eV)
   134     134       --         0.719 au  fB            1.00     97 A               2
                        (      19.578 eV)
   135     135       --         0.750 au  fB            1.00     98 A               2
                        (      20.411 eV)
   136     136       --         0.774 au  fB            1.00     99 A               2
                        (      21.050 eV)
   137     137       --         0.783 au  fB            1.00    100 A               2
                        (      21.302 eV)
   138     138       --         0.806 au  fB            1.00    101 A               2
                        (      21.942 eV)
   139     139       --         0.863 au  fB            1.00    102 A               2
                        (      23.486 eV)
   140     140       --         0.898 au  fB            1.00    103 A               2
                        (      24.437 eV)
   141     141       --         0.935 au  fB            1.00    104 A               2
                        (      25.438 eV)
   142     142       --         0.948 au  fB            1.00    105 A               2
                        (      25.788 eV)
   143     143       --         0.974 au  fB            1.00    106 A               2
                        (      26.507 eV)
   144     144       --         0.990 au  fB            1.00    107 A               2
                        (      26.941 eV)
   145     145       --         1.015 au  fB            1.00    108 A               2
                        (      27.610 eV)
   146     146       --         1.026 au  fB            1.00    109 A               2
                        (      27.932 eV)
   147     147       --         1.064 au  fB            1.00    110 A               2
                        (      28.955 eV)
   148     148       --         1.077 au  fB            1.00    111 A               2
                        (      29.313 eV)
   149     149       --         1.088 au  fB            1.00    112 A               2
                        (      29.613 eV)
   150     150       --         1.125 au  fB            1.00    113 A               2
                        (      30.612 eV)
   151     151       --         1.132 au  fB            1.00    114 A               2
                        (      30.794 eV)
   152     152       --         1.144 au  fB            1.00    115 A               2
                        (      31.133 eV)
   153     153       --         1.164 au  fB            1.00    116 A               2
                        (      31.664 eV)
   154     154       --         1.173 au  fB            1.00    117 A               2
                        (      31.928 eV)
   155     155       --         1.196 au  fB            1.00    118 A               2
                        (      32.552 eV)
   156     156       --         1.207 au  fB            1.00    119 A               2
                        (      32.840 eV)
   157     157       --         1.232 au  fB            1.00    120 A               2
                        (      33.529 eV)
   158     158       --         1.243 au  fB            1.00    121 A               2
                        (      33.814 eV)
   159     159       --         1.261 au  fB            1.00    122 A               2
                        (      34.308 eV)
   160     160       --         1.268 au  fB            1.00    123 A               2
                        (      34.507 eV)
   161     161       --         1.270 au  fB            1.00    124 A               2
                        (      34.556 eV)
   162     162       --         1.295 au  fB            1.00    125 A               2
                        (      35.234 eV)
   163     163       --         1.312 au  fB            1.00    126 A               2
                        (      35.691 eV)
   164     164       --         1.316 au  fB            1.00    127 A               2
                        (      35.809 eV)
   165     165       --         1.332 au  fB            1.00    128 A               2
                        (      36.243 eV)
   166     166       --         1.344 au  fB            1.00    129 A               2
                        (      36.567 eV)
   167     167       --         1.370 au  fB            1.00    130 A               2
                        (      37.293 eV)
   168     168       --         1.404 au  fB            1.00    131 A               2
                        (      38.218 eV)
   169     169       --         1.408 au  fB            1.00    132 A               2
                        (      38.324 eV)
   170     170       --         1.455 au  fB            1.00    133 A               2
                        (      39.591 eV)
   171     171       --         1.467 au  fB            1.00    134 A               2
                        (      39.920 eV)
   172     172       --         1.491 au  fB            1.00    135 A               2
                        (      40.566 eV)
   173     173       --         1.525 au  fB            1.00    136 A               2
                        (      41.490 eV)
   174     174       --         1.556 au  fB            1.00    137 A               2
                        (      42.345 eV)
   175     175       --         1.566 au  fB            1.00    138 A               2
                        (      42.600 eV)
   176     176       --         1.601 au  fB            1.00    139 A               2
                        (      43.570 eV)
   177     177       --         1.611 au  fB            1.00    140 A               2
                        (      43.848 eV)
   178     178       --         1.624 au  fB            1.00    141 A               2
                        (      44.196 eV)
   179     179       --         1.658 au  fB            1.00    142 A               2
                        (      45.130 eV)
   180     180       --         1.705 au  fB            1.00    143 A               2
                        (      46.396 eV)
   181     181       --         1.717 au  fB            1.00    144 A               2
                        (      46.733 eV)
   182     182       --         1.736 au  fB            1.00    145 A               2
                        (      47.233 eV)
   183     183       --         1.765 au  fB            1.00    146 A               2
                        (      48.033 eV)
   184     184       --         1.804 au  fB            1.00    147 A               2
                        (      49.094 eV)
   185     185       --         1.847 au  fB            1.00    148 A               2
                        (      50.271 eV)
   186     186       --         1.872 au  fB            1.00    149 A               2
                        (      50.930 eV)
   187     187       --         1.890 au  fB            1.00    150 A               2
                        (      51.443 eV)
   188     188       --         1.942 au  fB            1.00    151 A               2
                        (      52.848 eV)
   189     189       --         1.968 au  fB            1.00    152 A               2
                        (      53.554 eV)
   190     190       --         1.978 au  fB            1.00    153 A               2
                        (      53.832 eV)
   191     191       --         2.012 au  fB            1.00    154 A               2
                        (      54.760 eV)
   192     192       --         2.021 au  fB            1.00    155 A               2
                        (      54.997 eV)
   193     193       --         2.059 au  fB            1.00    156 A               2
                        (      56.040 eV)
   194     194       --         2.076 au  fB            1.00    157 A               2
                        (      56.502 eV)
   195     195       --         2.104 au  fB            1.00    158 A               2
                        (      57.254 eV)
   196     196       --         2.159 au  fB            1.00    159 A               2
                        (      58.745 eV)
   197     197       --         2.182 au  fB            1.00    160 A               2
                        (      59.363 eV)
   198     198       --         2.200 au  fB            1.00    161 A               2
                        (      59.854 eV)
   199     199       --         2.226 au  fB            1.00    162 A               2
                        (      60.572 eV)
   200     200       --         2.256 au  fB            1.00    163 A               2
                        (      61.390 eV)
   201     201       --         2.295 au  fB            1.00    164 A               2
                        (      62.463 eV)
   202     202       --         2.329 au  fB            1.00    165 A               2
                        (      63.377 eV)
   203     203       --         2.332 au  fB            1.00    166 A               2
                        (      63.463 eV)
   204     204       --         2.360 au  fB            1.00    167 A               2
                        (      64.209 eV)
   205     205       --         2.402 au  fB            1.00    168 A               2
                        (      65.350 eV)
   206     206       --         2.416 au  fB            1.00    169 A               2
                        (      65.739 eV)
   207     207       --         2.451 au  fB            1.00    170 A               2
                        (      66.697 eV)
   208     208       --         2.491 au  fB            1.00    171 A               2
                        (      67.773 eV)
   209     209       --         2.512 au  fB            1.00    172 A               2
                        (      68.365 eV)
   210     210       --         2.551 au  fB            1.00    173 A               2
                        (      69.414 eV)
   211     211       --         2.582 au  fB            1.00    174 A               2
                        (      70.271 eV)
   212     212       --         2.618 au  fB            1.00    175 A               2
                        (      71.236 eV)
   213     213       --         2.667 au  fB            1.00    176 A               2
                        (      72.574 eV)
   214     214       --         2.688 au  fB            1.00    177 A               2
                        (      73.134 eV)
   215     215       --         2.702 au  fB            1.00    178 A               2
                        (      73.533 eV)
   216     216       --         2.724 au  fB            1.00    179 A               2
                        (      74.137 eV)
   217     217       --         2.778 au  fB            1.00    180 A               2
                        (      75.588 eV)
   218     218       --         2.787 au  fB            1.00    181 A               2
                        (      75.846 eV)
   219     219       --         2.881 au  fB            1.00    182 A               2
                        (      78.384 eV)
   220     220       --         2.925 au  fB            1.00    183 A               2
                        (      79.587 eV)
   221     221       --         2.956 au  fB            1.00    184 A               2
                        (      80.431 eV)
   222     222       --         2.975 au  fB            1.00    185 A               2
                        (      80.944 eV)
   223     223       --         3.019 au  fB            1.00    186 A               2
                        (      82.151 eV)
   224     224       --         3.038 au  fB            1.00    187 A               2
                        (      82.665 eV)
   225     225       --         3.065 au  fB            1.00    188 A               2
                        (      83.414 eV)
   226     226       --         3.091 au  fB            1.00    189 A               2
                        (      84.101 eV)
   227     227       --         3.119 au  fB            1.00    190 A               2
                        (      84.885 eV)
   228     228       --         3.173 au  fB            1.00    191 A               2
                        (      86.338 eV)
   229     229       --         3.210 au  fB            1.00    192 A               2
                        (      87.342 eV)
   230     230       --         3.262 au  fB            1.00    193 A               2
                        (      88.759 eV)
   231     231       --         3.284 au  fB            1.00    194 A               2
                        (      89.353 eV)
   232     232       --         3.338 au  fB            1.00    195 A               2
                        (      90.828 eV)
   233     233       --         3.376 au  fB            1.00    196 A               2
                        (      91.871 eV)
   234     234       --         3.401 au  fB            1.00    197 A               2
                        (      92.549 eV)
   235     235       --         3.472 au  fB            1.00    198 A               2
                        (      94.476 eV)
   236     236       --         3.475 au  fB            1.00    199 A               2
                        (      94.551 eV)
   237     237       --         3.511 au  fB            1.00    200 A               2
                        (      95.548 eV)
   238     238       --         3.516 au  fB            1.00    201 A               2
                        (      95.673 eV)
   239     239       --         3.533 au  fB            1.00    202 A               2
                        (      96.128 eV)
   240     240       --         3.544 au  fB            1.00    203 A               2
                        (      96.437 eV)
   241     241       --         3.562 au  fB            1.00    204 A               2
                        (      96.929 eV)
   242     242       --         3.599 au  fB            1.00    205 A               2
                        (      97.925 eV)
   243     243       --         3.640 au  fB            1.00    206 A               2
                        (      99.053 eV)
   244     244       --         3.663 au  fB            1.00    207 A               2
                        (      99.668 eV)
   245     245       --         3.677 au  fB            1.00    208 A               2
                        (     100.058 eV)
   246     246       --         3.698 au  fB            1.00    209 A               2
                        (     100.628 eV)
   247     247       --         3.759 au  fB            1.00    210 A               2
                        (     102.300 eV)
   248     248       --         3.770 au  fB            1.00    211 A               2
                        (     102.576 eV)
   249     249       --         3.781 au  fB            1.00    212 A               2
                        (     102.896 eV)
   250     250       --         3.795 au  fB            1.00    213 A               2
                        (     103.267 eV)
   251     251       --         3.824 au  fB            1.00    214 A               2
                        (     104.046 eV)
   252     252       --         3.845 au  fB            1.00    215 A               2
                        (     104.618 eV)
   253     253       --         3.870 au  fB            1.00    216 A               2
                        (     105.321 eV)
   254     254       --         3.876 au  fB            1.00    217 A               2
                        (     105.474 eV)
   255     255       --         3.925 au  fB            1.00    218 A               2
                        (     106.797 eV)
   256     256       --         3.937 au  fB            1.00    219 A               2
                        (     107.125 eV)
   257     257       --         3.964 au  fB            1.00    220 A               2
                        (     107.858 eV)
   258     258       --         3.995 au  fB            1.00    221 A               2
                        (     108.719 eV)
   259     259       --         4.010 au  fB            1.00    222 A               2
                        (     109.131 eV)
   260     260       --         4.055 au  fB            1.00    223 A               2
                        (     110.329 eV)
   261     261       --         4.094 au  fB            1.00    224 A               2
                        (     111.407 eV)
   262     262       --         4.123 au  fB            1.00    225 A               2
                        (     112.181 eV)
   263     263       --         4.132 au  fB            1.00    226 A               2
                        (     112.435 eV)
   264     264       --         4.173 au  fB            1.00    227 A               2
                        (     113.565 eV)
   265     265       --         4.186 au  fB            1.00    228 A               2
                        (     113.917 eV)
   266     266       --         4.213 au  fB            1.00    229 A               2
                        (     114.643 eV)
   267     267       --         4.269 au  fB            1.00    230 A               2
                        (     116.177 eV)
   268     268       --         4.289 au  fB            1.00    231 A               2
                        (     116.715 eV)
   269     269       --         4.316 au  fB            1.00    232 A               2
                        (     117.444 eV)
   270     270       --         4.362 au  fB            1.00    233 A               2
                        (     118.686 eV)
   271     271       --         4.375 au  fB            1.00    234 A               2
                        (     119.054 eV)
   272     272       --         4.391 au  fB            1.00    235 A               2
                        (     119.492 eV)
   273     273       --         4.416 au  fB            1.00    236 A               2
                        (     120.172 eV)
   274     274       --         4.505 au  fB            1.00    237 A               2
                        (     122.594 eV)
   275     275       --         4.574 au  fB            1.00    238 A               2
                        (     124.457 eV)
   276     276       --         4.603 au  fB            1.00    239 A               2
                        (     125.263 eV)
   277     277       --         4.612 au  fB            1.00    240 A               2
                        (     125.510 eV)
   278     278       --         4.696 au  fB            1.00    241 A               2
                        (     127.776 eV)
   279     279       --         4.710 au  fB            1.00    242 A               2
                        (     128.163 eV)
   280     280       --         4.772 au  fB            1.00    243 A               2
                        (     129.845 eV)
   281     281       --         4.809 au  fB            1.00    244 A               2
                        (     130.861 eV)
   282     282       --         4.854 au  fB            1.00    245 A               2
                        (     132.094 eV)
   283     283       --         4.860 au  fB            1.00    246 A               2
                        (     132.250 eV)
   284     284       --         4.934 au  fB            1.00    247 A               2
                        (     134.262 eV)
   285     285       --         4.992 au  fB            1.00    248 A               2
                        (     135.843 eV)
   286     286       --         5.000 au  fB            1.00    249 A               2
                        (     136.061 eV)
   287     287       --         5.058 au  fB            1.00    250 A               2
                        (     137.624 eV)
   288     288       --         5.096 au  fB            1.00    251 A               2
                        (     138.678 eV)
   289     289       --         5.148 au  fB            1.00    252 A               2
                        (     140.079 eV)
   290     290       --         5.196 au  fB            1.00    253 A               2
                        (     141.384 eV)
   291     291       --         5.245 au  fB            1.00    254 A               2
                        (     142.734 eV)
   292     292       --         5.319 au  fB            1.00    255 A               2
                        (     144.746 eV)
   293     293       --         5.362 au  fB            1.00    256 A               2
                        (     145.898 eV)
   294     294       --         5.451 au  fB            1.00    257 A               2
                        (     148.326 eV)
   295     295       --         5.480 au  fB            1.00    258 A               2
                        (     149.110 eV)
   296     296       --         5.506 au  fB            1.00    259 A               2
                        (     149.817 eV)
   297     297       --         5.570 au  fB            1.00    260 A               2
                        (     151.556 eV)
   298     298       --         5.581 au  fB            1.00    261 A               2
                        (     151.870 eV)
   299     299       --         5.714 au  fB            1.00    262 A               2
                        (     155.473 eV)
   300     300       --         5.871 au  fB            1.00    263 A               2
                        (     159.747 eV)
   301     301       --         5.896 au  fB            1.00    264 A               2
                        (     160.443 eV)
   302     302       --         5.934 au  fB            1.00    265 A               2
                        (     161.476 eV)
   303     303       --         6.019 au  fB            1.00    266 A               2
                        (     163.789 eV)
   304     304       --         6.108 au  fB            1.00    267 A               2
                        (     166.195 eV)
   305     305       --         6.237 au  fB            1.00    268 A               2
                        (     169.713 eV)
   306     306       --         6.250 au  fB            1.00    269 A               2
                        (     170.077 eV)
   307     307       --         6.326 au  fB            1.00    270 A               2
                        (     172.143 eV)
   308     308       --         6.383 au  fB            1.00    271 A               2
                        (     173.698 eV)
   309     309       --         6.390 au  fB            1.00    272 A               2
                        (     173.875 eV)
   310     310       --         6.436 au  fB            1.00    273 A               2
                        (     175.136 eV)
   311     311       --         6.456 au  fB            1.00    274 A               2
                        (     175.676 eV)
   312     312       --         6.570 au  fB            1.00    275 A               2
                        (     178.772 eV)
   313     313       --         6.685 au  fB            1.00    276 A               2
                        (     181.918 eV)
   314     314       --         6.765 au  fB            1.00    277 A               2
                        (     184.074 eV)
   315     315       --         6.810 au  fB            1.00    278 A               2
                        (     185.318 eV)
   316     316       --         6.876 au  fB            1.00    279 A               2
                        (     187.098 eV)
   317     317       --         6.929 au  fB            1.00    280 A               2
                        (     188.547 eV)
   318     318       --         7.307 au  fB            1.00    281 A               2
                        (     198.838 eV)
   319     319       --         7.363 au  fB            1.00    282 A               2
                        (     200.370 eV)
   320     320       --         7.408 au  fB            1.00    283 A               2
                        (     201.578 eV)
   321     321       --         7.563 au  fB            1.00    284 A               2
                        (     205.789 eV)
   322     322       --         7.599 au  fB            1.00    285 A               2
                        (     206.773 eV)
   323     323       --         7.704 au  fB            1.00    286 A               2
                        (     209.650 eV)
   324     324       --         7.794 au  fB            1.00    287 A               2
                        (     212.073 eV)
   325     325       --         8.314 au  fB            1.00    288 A               2
                        (     226.231 eV)
   326     326       --         8.684 au  fB            1.00    289 A               2
                        (     236.315 eV)
   327     327       --         8.743 au  fB            1.00    290 A               2
                        (     237.920 eV)
   328     328       --         8.795 au  fB            1.00    291 A               2
                        (     239.311 eV)
   329     329       --         9.349 au  fB            1.00    292 A               2
                        (     254.396 eV)
   330     330       --         9.467 au  fB            1.00    293 A               2
                        (     257.612 eV)
   331     331       --         9.806 au  fB            1.00    294 A               2
                        (     266.826 eV)
   332     332       --        10.528 au  fB            1.00    295 A               2
                        (     286.493 eV)
   333     333       --        11.306 au  fB            1.00    296 A               2
                        (     307.657 eV)
   334     334       --        14.138 au  fB            1.00    297 A               2
                        (     384.704 eV)
   335     335       --        15.677 au  fB            1.00    298 A               2
                        (     426.583 eV)
   336     336       --        15.950 au  fB            1.00    299 A               2
                        (     434.023 eV)
   337     337       --        19.070 au  fB            1.00    300 A               2
                        (     518.910 eV)
   338     338       --        19.123 au  fB            1.00    301 A               2
                        (     520.357 eV)
   339     339       --        19.962 au  fB            1.00    302 A               2
                        (     543.183 eV)
   340     340       --        55.123 au  fB            1.00    303 A               2
                        (    1499.979 eV)
   341     341       --        57.206 au  fB            1.00    304 A               2
                        (    1556.644 eV)
   342     342       --        58.841 au  fB            1.00    305 A               2
                        (    1601.149 eV)
   343     343       --        69.705 au  fB            1.00    306 A               2
                        (    1896.769 eV)
   344     344       --        70.873 au  fB            1.00    307 A               2
                        (    1928.546 eV)
   345     345       --        71.547 au  fB            1.00    308 A               2
                        (    1946.880 eV)
   346     346       --        71.934 au  fB            1.00    309 A               2
                        (    1957.427 eV)
   347     347       --       127.916 au  fB            1.00    310 A               2
                        (    3480.769 eV)
   348     348       --       128.782 au  fB            1.00    311 A               2
                        (    3504.339 eV)
   349     349       --       210.640 au  fB            1.00    312 A               2
                        (    5731.795 eV)



 ================================
 (Slater-type)  F U N C T I O N S  ***  (Basis and Fit)  ***
 ================================
  

 Atom Type    1  (F)
 ==============

 Valence Basis Sets:  10
 -----------------------
   1 S   10.880000
   1 S    7.700000
   2 S    3.240000
   2 S    1.940000
   2 S    0.740000
   2 P    4.540000
   2 P    2.300000
   2 P    1.240000
   3 D    2.000000
   4 F    3.000000

 Atom Type    2  (H)
 ==============

 Valence Basis Sets:   5
 -----------------------
   1 S    0.690000
   1 S    0.920000
   1 S    1.580000
   2 P    1.250000
   3 D    2.500000

 Atom Type    3  (C)
 ==============

 Valence Basis Sets:  10
 -----------------------
   1 S    7.680000
   1 S    5.000000
   2 S    1.280000
   2 S    2.100000
   2 S    4.600000
   2 P    0.820000
   2 P    1.480000
   2 P    2.940000
   3 D    2.200000
   4 F    3.300000

 Atom Type    4  (Cl)
 ==============

 Valence Basis Sets:  14
 -----------------------
   1 S   20.300000
   1 S   15.250000
   2 S    6.250000
   2 S    4.450000
   2 P    8.850000
   2 P    5.050000
   3 S    3.450000
   3 S    2.300000
   3 S    1.600000
   3 P    3.350000
   3 P    2.050000
   3 P    1.200000
   3 D    2.000000
   4 F    2.000000

 Atom Type    5  (N)
 ==============

 Valence Basis Sets:  10
 -----------------------
   1 S    8.740000
   1 S    5.900000
   2 S    5.150000
   2 S    2.500000
   2 S    1.500000
   2 P    3.680000
   2 P    1.880000
   2 P    1.000000
   3 D    2.200000
   4 F    3.300000

 Atom Type    6  (H)
 ==============

 Valence Basis Sets:   5
 -----------------------
   1 S    0.690000
   1 S    0.920000
   1 S    1.580000
   2 P    1.250000
   3 D    2.500000

 Atom Type    7  (O)
 ==============

 Valence Basis Sets:  10
 -----------------------
   1 S    9.800000
   1 S    6.800000
   2 S    7.580000
   2 S    2.880000
   2 S    1.720000
   2 P    4.080000
   2 P    2.080000
   2 P    1.120000
   3 D    2.000000
   4 F    3.000000


 BAS: List of all Elementary Cartesian Basis Functions
 =====================================================

 The numbering in the list below (to the right of the function characteristics) is referred
 to in print-outs of MO eigenvectors and Mulliken populations in the BAS representation
 (as contrasted to the SFO representation).

 Notes:
 1. The functions are characterized by a polynomial prefactor (powers of x,y,z and r) and
    an exponential decay factor alpha.
 2. Since the basis sets are specific for an atom TYPE, the individual functions occur on
    all atoms of that type.
 3. The word 'Core' in the left margin signals that it is a Core Function (CF) : not a
    degree of freedom in the valence set, but only used to ensure orthogonalization of
    the other valence basis functions on the frozen Core Orbitals.


 (power of) X  Y  Z  R     Alpha  on Atom
            ==========     =====     ==========

 F                                    1
                                  ---------------------------------------------------------------------------
            0  0  0  0    10.880      1
            0  0  0  0     7.700      2
            0  0  0  1     3.240      3
            0  0  0  1     1.940      4
            0  0  0  1     0.740      5
            1  0  0  0     4.540      6
            0  1  0  0     4.540      7
            0  0  1  0     4.540      8
            1  0  0  0     2.300      9
            0  1  0  0     2.300     10
            0  0  1  0     2.300     11
            1  0  0  0     1.240     12
            0  1  0  0     1.240     13
            0  0  1  0     1.240     14
            2  0  0  0     2.000     15
            1  1  0  0     2.000     16
            1  0  1  0     2.000     17
            0  2  0  0     2.000     18
            0  1  1  0     2.000     19
            0  0  2  0     2.000     20
            3  0  0  0     3.000     21
            2  1  0  0     3.000     22
            2  0  1  0     3.000     23
            1  2  0  0     3.000     24
            1  1  1  0     3.000     25
            1  0  2  0     3.000     26
            0  3  0  0     3.000     27
            0  2  1  0     3.000     28
            0  1  2  0     3.000     29
            0  0  3  0     3.000     30

 H                                    2
                                  ---------------------------------------------------------------------------
            0  0  0  0     0.690     31
            0  0  0  0     0.920     32
            0  0  0  0     1.580     33
            1  0  0  0     1.250     34
            0  1  0  0     1.250     35
            0  0  1  0     1.250     36
            2  0  0  0     2.500     37
            1  1  0  0     2.500     38
            1  0  1  0     2.500     39
            0  2  0  0     2.500     40
            0  1  1  0     2.500     41
            0  0  2  0     2.500     42

 C                                    3    4    5
                                  ---------------------------------------------------------------------------
            0  0  0  0     7.680     43   73  103
            0  0  0  0     5.000     44   74  104
            0  0  0  1     1.280     45   75  105
            0  0  0  1     2.100     46   76  106
            0  0  0  1     4.600     47   77  107
            1  0  0  0     0.820     48   78  108
            0  1  0  0     0.820     49   79  109
            0  0  1  0     0.820     50   80  110
            1  0  0  0     1.480     51   81  111
            0  1  0  0     1.480     52   82  112
            0  0  1  0     1.480     53   83  113
            1  0  0  0     2.940     54   84  114
            0  1  0  0     2.940     55   85  115
            0  0  1  0     2.940     56   86  116
            2  0  0  0     2.200     57   87  117
            1  1  0  0     2.200     58   88  118
            1  0  1  0     2.200     59   89  119
            0  2  0  0     2.200     60   90  120
            0  1  1  0     2.200     61   91  121
            0  0  2  0     2.200     62   92  122
            3  0  0  0     3.300     63   93  123
            2  1  0  0     3.300     64   94  124
            2  0  1  0     3.300     65   95  125
            1  2  0  0     3.300     66   96  126
            1  1  1  0     3.300     67   97  127
            1  0  2  0     3.300     68   98  128
            0  3  0  0     3.300     69   99  129
            0  2  1  0     3.300     70  100  130
            0  1  2  0     3.300     71  101  131
            0  0  3  0     3.300     72  102  132

 Cl                                   6
                                  ---------------------------------------------------------------------------
            0  0  0  0    20.300    133
            0  0  0  0    15.250    134
            0  0  0  1     6.250    135
            0  0  0  1     4.450    136
            1  0  0  0     8.850    137
            0  1  0  0     8.850    138
            0  0  1  0     8.850    139
            1  0  0  0     5.050    140
            0  1  0  0     5.050    141
            0  0  1  0     5.050    142
            0  0  0  2     3.450    143
            0  0  0  2     2.300    144
            0  0  0  2     1.600    145
            1  0  0  1     3.350    146
            0  1  0  1     3.350    147
            0  0  1  1     3.350    148
            1  0  0  1     2.050    149
            0  1  0  1     2.050    150
            0  0  1  1     2.050    151
            1  0  0  1     1.200    152
            0  1  0  1     1.200    153
            0  0  1  1     1.200    154
            2  0  0  0     2.000    155
            1  1  0  0     2.000    156
            1  0  1  0     2.000    157
            0  2  0  0     2.000    158
            0  1  1  0     2.000    159
            0  0  2  0     2.000    160
            3  0  0  0     2.000    161
            2  1  0  0     2.000    162
            2  0  1  0     2.000    163
            1  2  0  0     2.000    164
            1  1  1  0     2.000    165
            1  0  2  0     2.000    166
            0  3  0  0     2.000    167
            0  2  1  0     2.000    168
            0  1  2  0     2.000    169
            0  0  3  0     2.000    170

 N                                    7    8    9   10
                                  ---------------------------------------------------------------------------
            0  0  0  0     8.740    171  201  231  261
            0  0  0  0     5.900    172  202  232  262
            0  0  0  1     5.150    173  203  233  263
            0  0  0  1     2.500    174  204  234  264
            0  0  0  1     1.500    175  205  235  265
            1  0  0  0     3.680    176  206  236  266
            0  1  0  0     3.680    177  207  237  267
            0  0  1  0     3.680    178  208  238  268
            1  0  0  0     1.880    179  209  239  269
            0  1  0  0     1.880    180  210  240  270
            0  0  1  0     1.880    181  211  241  271
            1  0  0  0     1.000    182  212  242  272
            0  1  0  0     1.000    183  213  243  273
            0  0  1  0     1.000    184  214  244  274
            2  0  0  0     2.200    185  215  245  275
            1  1  0  0     2.200    186  216  246  276
            1  0  1  0     2.200    187  217  247  277
            0  2  0  0     2.200    188  218  248  278
            0  1  1  0     2.200    189  219  249  279
            0  0  2  0     2.200    190  220  250  280
            3  0  0  0     3.300    191  221  251  281
            2  1  0  0     3.300    192  222  252  282
            2  0  1  0     3.300    193  223  253  283
            1  2  0  0     3.300    194  224  254  284
            1  1  1  0     3.300    195  225  255  285
            1  0  2  0     3.300    196  226  256  286
            0  3  0  0     3.300    197  227  257  287
            0  2  1  0     3.300    198  228  258  288
            0  1  2  0     3.300    199  229  259  289
            0  0  3  0     3.300    200  230  260  290

 H                                   11   12   13   14
                                  ---------------------------------------------------------------------------
            0  0  0  0     0.690    291  303  315  327
            0  0  0  0     0.920    292  304  316  328
            0  0  0  0     1.580    293  305  317  329
            1  0  0  0     1.250    294  306  318  330
            0  1  0  0     1.250    295  307  319  331
            0  0  1  0     1.250    296  308  320  332
            2  0  0  0     2.500    297  309  321  333
            1  1  0  0     2.500    298  310  322  334
            1  0  1  0     2.500    299  311  323  335
            0  2  0  0     2.500    300  312  324  336
            0  1  1  0     2.500    301  313  325  337
            0  0  2  0     2.500    302  314  326  338

 O                                   15   16
                                  ---------------------------------------------------------------------------
            0  0  0  0     9.800    339  369
            0  0  0  0     6.800    340  370
            0  0  0  1     7.580    341  371
            0  0  0  1     2.880    342  372
            0  0  0  1     1.720    343  373
            1  0  0  0     4.080    344  374
            0  1  0  0     4.080    345  375
            0  0  1  0     4.080    346  376
            1  0  0  0     2.080    347  377
            0  1  0  0     2.080    348  378
            0  0  1  0     2.080    349  379
            1  0  0  0     1.120    350  380
            0  1  0  0     1.120    351  381
            0  0  1  0     1.120    352  382
            2  0  0  0     2.000    353  383
            1  1  0  0     2.000    354  384
            1  0  1  0     2.000    355  385
            0  2  0  0     2.000    356  386
            0  1  1  0     2.000    357  387
            0  0  2  0     2.000    358  388
            3  0  0  0     3.000    359  389
            2  1  0  0     3.000    360  390
            2  0  1  0     3.000    361  391
            1  2  0  0     3.000    362  392
            1  1  1  0     3.000    363  393
            1  0  2  0     3.000    364  394
            0  3  0  0     3.000    365  395
            0  2  1  0     3.000    366  396
            0  1  2  0     3.000    367  397
            0  0  3  0     3.000    368  398

 Total number of charge fitting functions (nprimf)      1197
 Total number of Cartesian basis functions (naos)        398
 Total number of Cartesian core functions  (ncos)          0

 ***************************************************************************************************



                                              ***********************
                                              *  T E C H N I C A L  *
                                              ***********************
  



 =============================================================
 P A R A L L E L I Z A T I O N  and  V E C T O R I Z A T I O N
 =============================================================
  
 Nr of parallel processes:                                1
 Maximum vector length in NumInt loops:                 128



 =====================
 S C F   U P D A T E S
 =====================
  
 Max. nr. of cycles:                               200
 Convergence criterion:                              0.0000010000
   secondary criterion:                              0.0010000000

 Mix parameter (when DIIS does not apply):           0.2000000000
 Mixed ADIIS+SDIIS will be used                  
    Max number of expansion vectors:                10
    Pure ADIIS when Max([F,P]) is above              0.1000000000
    Pure SDIIS when Max([F,P]) is below              0.0010000000
 Automatic ElectronSmearing (in case of problematic SCF convergence) disabled



 =================
 P R E C I S I O N  ***  (General: NumInt, NeglectFunctionTails, ...)  ***
 =================
  

 NumInt:           Target precision:                 4.0000000000
 -------           Initial precision:                4.0000000000
                   Min. precision (optimization):    4.0000000000

 Neglect Functions:          Basis functions:        0.1000000000E-05
 ------------------          Fit functions:          0.1000000000E-05



 ===========================
 L I N E A R   S C A L I N G
 ===========================
  

 Cut-off radii density fit:                        0.1000000000E-07
 Overlap cut-off criterion AO matrix elements:     0.1000000000E-05
 Cut-offs for Coulomb potential and fitted density:0.1000000000E-07
 Cut-off criterion for Coulomb multipole terms:    0.1000000000E-07
 Progressive Convergence parameter:                 0.000000000    
 ***************************************************************************************************



                                            ***************************
                                            *  C O M P U T A T I O N  *
                                            ***************************
  

 Number of elements of the density matrix on this node (used, total):     79401     79401



 ===========================================
 Numerical Integration : Fuzzy Cells (Becke)
 ===========================================
  
 Becke grid quality: NORMAL         
  
 Lebedev angular grid order:             min:  11 max:  23
[...]
                                    1.67%    73 A               8.925  0.00     2 fB
                                    1.39%    57 A               4.245  0.00     2 fB
      -0.05927         6 A         12.84%     4 A              -1.533  2.00     1 fA
                                    8.99%    33 A              -9.466  2.00     2 fB
                                    8.45%     5 A              -1.532  2.00     1 fA
                                    6.74%    46 A              -1.097  0.00     2 fB
                                    6.05%    51 A               1.486  0.00     2 fB
                                    6.01%    58 A               4.676  0.00     2 fB
                                    4.31%    47 A              -0.265  0.00     2 fB
                                    3.97%    45 A              -1.629  0.00     2 fB
                                    3.73%    63 A               6.037  0.00     2 fB
                                    3.55%    25 A             -14.314  2.00     2 fB
                                    3.02%    26 A             -13.913  2.00     2 fB
                                    2.53%    36 A              -8.343  2.00     2 fB
                                    2.37%    53 A               2.699  0.00     2 fB
                                    2.37%    31 A             -11.253  2.00     2 fB
                                    1.75%    39 A              -7.667  2.00     2 fB
                                    1.68%    32 A              -9.684  2.00     2 fB
                                    1.57%    40 A              -7.415  2.00     2 fB
                                    1.40%    61 A               5.411  0.00     2 fB
                                    1.35%    56 A               4.017  0.00     2 fB
                                    1.33%    60 A               5.087  0.00     2 fB
                                    1.32%    41 A              -7.196  2.00     2 fB
                                    1.27%    30 A             -12.359  2.00     2 fB
                                    1.23%    17 A             -24.938  2.00     2 fB
                                   -1.22%     9 A              17.522  0.00     1 fA
                                    1.12%    35 A              -8.683  2.00     2 fB
                                    1.03%    52 A               2.014  0.00     2 fB
       0.05902       343 A          8.90%    46 A              -1.097  0.00     2 fB
                                    7.06%     4 A              -1.533  2.00     1 fA
                                    6.93%     3 A              -4.359  2.00     1 fA
                                    6.84%    58 A               4.676  0.00     2 fB
                                    6.02%    51 A               1.486  0.00     2 fB
                                    5.44%     5 A              -1.532  2.00     1 fA
                                    5.31%    45 A              -1.629  0.00     2 fB
                                    4.61%    47 A              -0.265  0.00     2 fB
                                    4.28%    39 A              -7.667  2.00     2 fB
                                    4.19%    63 A               6.037  0.00     2 fB
                                    3.97%    32 A              -9.684  2.00     2 fB
                                    3.48%    33 A              -9.466  2.00     2 fB
                                    3.16%    41 A              -7.196  2.00     2 fB
                                    3.01%     6 A               4.185  1.00     1 fA
                                    2.78%    53 A               2.699  0.00     2 fB
                                    2.50%    36 A              -8.343  2.00     2 fB
                                   -2.45%    17 A             -24.938  2.00     2 fB
                                    2.45%    52 A               2.014  0.00     2 fB
                                    2.15%    31 A             -11.253  2.00     2 fB
                                    2.11%    40 A              -7.415  2.00     2 fB
                                    1.69%    61 A               5.411  0.00     2 fB
                                    1.47%    56 A               4.017  0.00     2 fB
                                    1.25%    35 A              -8.683  2.00     2 fB
                                    1.04%    34 A              -9.202  2.00     2 fB
                                    1.03%    30 A             -12.359  2.00     2 fB
      -0.05635         7 A         19.82%    33 A              -9.466  2.00     2 fB
                                   16.53%    32 A              -9.684  2.00     2 fB
                                    8.04%    54 A               3.355  0.00     2 fB
                                    7.31%    56 A               4.017  0.00     2 fB
                                    6.00%    49 A               0.430  0.00     2 fB
                                    4.70%    64 A               6.198  0.00     2 fB
                                    4.40%    52 A               2.014  0.00     2 fB
                                    3.91%    65 A               6.310  0.00     2 fB
                                    3.57%    31 A             -11.253  2.00     2 fB
                                    3.24%    62 A               5.573  0.00     2 fB
                                    2.98%    57 A               4.245  0.00     2 fB
                                   -2.17%     3 A              -4.359  2.00     1 fA
                                    2.10%     4 A              -1.533  2.00     1 fA
                                   -1.99%    17 A             -24.938  2.00     2 fB
                                    1.92%    34 A              -9.202  2.00     2 fB
                                    1.84%    66 A               6.485  0.00     2 fB
                                    1.80%    25 A             -14.314  2.00     2 fB
                                   -1.74%     6 A               4.185  1.00     1 fA
                                    1.65%    45 A              -1.629  0.00     2 fB
                                    1.59%    22 A             -18.295  2.00     2 fB
                                    1.57%    30 A             -12.359  2.00     2 fB
                                    1.53%     5 A              -1.532  2.00     1 fA
                                   -1.52%    51 A               1.486  0.00     2 fB
                                    1.45%     7 A               6.808  0.00     1 fA
                                    1.39%    61 A               5.411  0.00     2 fB
                                    1.30%    48 A              -0.074  0.00     2 fB
                                    1.29%    39 A              -7.667  2.00     2 fB
                                    1.17%    76 A              10.036  0.00     2 fB
                                    1.07%    26 A             -13.913  2.00     2 fB
                                    1.04%     2 A             -20.631  2.00     1 fA
       0.05599       342 A         32.00%    33 A              -9.466  2.00     2 fB
                                    8.15%    54 A               3.355  0.00     2 fB
                                    6.58%    56 A               4.017  0.00     2 fB
                                    5.99%    17 A             -24.938  2.00     2 fB
                                    5.31%    49 A               0.430  0.00     2 fB
                                    4.52%    64 A               6.198  0.00     2 fB
                                   -4.51%     6 A               4.185  1.00     1 fA
                                    4.13%    65 A               6.310  0.00     2 fB
                                    3.82%    52 A               2.014  0.00     2 fB
                                    3.70%    57 A               4.245  0.00     2 fB
                                    3.21%    62 A               5.573  0.00     2 fB
                                    3.10%    34 A              -9.202  2.00     2 fB
                                    2.77%    48 A              -0.074  0.00     2 fB
                                    2.72%    32 A              -9.684  2.00     2 fB
                                    2.09%    45 A              -1.629  0.00     2 fB
                                    1.79%     3 A              -4.359  2.00     1 fA
                                    1.76%    39 A              -7.667  2.00     2 fB
                                    1.76%    66 A               6.485  0.00     2 fB
                                    1.60%     7 A               6.808  0.00     1 fA
                                    1.58%    76 A              10.036  0.00     2 fB
                                    1.39%    27 A             -13.379  2.00     2 fB
                                   -1.38%    51 A               1.486  0.00     2 fB
                                    1.20%    61 A               5.411  0.00     2 fB
 Mulliken charges used for AMS results%charges...


    =====================
     CALCULATION RESULTS
    =====================

Energy (hartree)            -0.22093052


--------------
Atomic charges
--------------
  Index   Atom    Charge
      1      F   -0.6396
      2      H    0.3513
      3      C    0.2781
      4      C   -0.0038
      5     Cl   -0.2401
      6      N   -0.0662
      7      H   -0.0375
      8      H    0.0167
      9      N   -0.0652
     10      H   -0.0690
     11      H   -0.0404
     12      C    0.0811
     13      N   -0.3545
     14      N    0.5767
     15      O   -0.3953
     16      O   -0.3924


Dipole moment vector    (Debye):     3.11625305    4.67814237   -1.92928529
              magnitude (Debye):     5.94291097


-----------------------
Molecular orbitals info
-----------------------
n orbitals:              349
n spin:                    1

Note: only printing virtual orbitals with
      energy smaller than HOMO + 100. eV

HOMO (eV):              -1.6971
LUMO (eV):               0.2982
HOMO-LUMO gap (eV):      1.9953

   Index   Energy (eV)    Occupation
     220       97.2105         0.000       
     219       96.6517         0.000       
     218       96.1237         0.000       
     217       95.0925         0.000       
     216       94.1309         0.000       
     215       93.3679         0.000       
     214       93.1950         0.000       
     213       92.2595         0.000       
     212       91.6962         0.000       
     211       91.0439         0.000       
     210       89.7604         0.000       
     209       89.1309         0.000       
     208       88.1701         0.000       
     207       87.1169         0.000       
     206       86.7358         0.000       
     205       85.6829         0.000       
     204       85.6098         0.000       
     203       84.4296         0.000       
     202       83.0931         0.000       
     201       82.1027         0.000       
     200       81.5203         0.000       
     199       80.1356         0.000       
     198       79.5911         0.000       
     197       77.9625         0.000       
     196       77.6201         0.000       
     195       76.7202         0.000       
     194       75.7539         0.000       
     193       74.6058         0.000       
     192       74.1930         0.000       
     191       73.7295         0.000       
     190       73.6883         0.000       
     189       72.3809         0.000       
     188       71.8741         0.000       
     187       71.0341         0.000       
     186       70.1850         0.000       
     185       69.1009         0.000       
     184       67.6573         0.000       
     183       67.0179         0.000       
     182       66.9577         0.000       
     181       66.1457         0.000       
     180       65.2962         0.000       
     179       65.0958         0.000       
     178       63.9485         0.000       
     177       62.9905         0.000       
     176       62.3241         0.000       
     175       61.9577         0.000       
     174       60.7324         0.000       
     173       60.5811         0.000       
     172       59.8686         0.000       
     171       58.9961         0.000       
     170       58.5410         0.000       
     169       58.2074         0.000       
     168       57.1949         0.000       
     167       57.1250         0.000       
     166       56.0299         0.000       
     165       55.4849         0.000       
     164       54.0855         0.000       
     163       53.2770         0.000       
     162       52.1798         0.000       
     161       52.0504         0.000       
     160       51.3530         0.000       
     159       50.9492         0.000       
     158       50.2254         0.000       
     157       49.5574         0.000       
     156       48.8424         0.000       
     155       48.6291         0.000       
     154       48.2693         0.000       
     153       48.0883         0.000       
     152       46.9404         0.000       
     151       46.8393         0.000       
     150       45.8842         0.000       
     149       45.1823         0.000       
     148       45.0102         0.000       
     147       44.2845         0.000       
     146       43.1302         0.000       
     145       42.7914         0.000       
     144       42.5251         0.000       
     143       41.7457         0.000       
     142       41.0773         0.000       
     141       40.7448         0.000       
     140       40.5457         0.000       
     139       39.7398         0.000       
     138       39.4757         0.000       
     137       38.9983         0.000       
     136       38.8811         0.000       
     135       38.2833         0.000       
     134       38.0260         0.000       
     133       37.9463         0.000       
     132       37.4609         0.000       
     131       36.9715         0.000       
     130       36.9142         0.000       
     129       36.4366         0.000       
     128       35.9724         0.000       
     127       35.5812         0.000       
     126       35.2047         0.000       
     125       34.7138         0.000       
     124       34.4486         0.000       
     123       33.5371         0.000       
     122       33.1889         0.000       
     121       32.9765         0.000       
     120       31.7045         0.000       
     119       31.5514         0.000       
     118       31.3214         0.000       
     117       30.6693         0.000       
     116       30.2888         0.000       
     115       29.2026         0.000       
     114       28.8097         0.000       
     113       28.1236         0.000       
     112       27.3681         0.000       
     111       26.6989         0.000       
     110       26.1658         0.000       
     109       25.4337         0.000       
     108       25.1206         0.000       
     107       24.5414         0.000       
     106       24.1246         0.000       
     105       23.7009         0.000       
     104       23.5346         0.000       
     103       23.2393         0.000       
     102       22.3893         0.000       
     101       21.6485         0.000       
     100       20.9411         0.000       
      99       20.6733         0.000       
      98       20.1488         0.000       
      97       19.9603         0.000       
      96       19.4401         0.000       
      95       18.8807         0.000       
      94       18.2660         0.000       
      93       18.0052         0.000       
      92       17.5523         0.000       
      91       17.0815         0.000       
      90       16.5907         0.000       
      89       16.4364         0.000       
      88       15.5786         0.000       
      87       15.1968         0.000       
      86       15.1683         0.000       
      85       14.9064         0.000       
      84       14.4806         0.000       
      83       14.2297         0.000       
      82       13.7979         0.000       
      81       13.6156         0.000       
      80       13.3218         0.000       
      79       13.1423         0.000       
      78       12.6912         0.000       
      77       12.2227         0.000       
      76       12.1217         0.000       
      75       11.4473         0.000       
      74       11.3491         0.000       
      73       10.8803         0.000       
      72       10.5472         0.000       
      71       10.3772         0.000       
      70       10.2273         0.000       
      69       10.1058         0.000       
      68        9.6148         0.000       
      67        9.3967         0.000       
      66        9.1159         0.000       
      65        8.9551         0.000       
      64        8.8964         0.000       
      63        8.4863         0.000       
      62        8.0694         0.000       
      61        7.6662         0.000       
      60        7.6254         0.000       
      59        6.7561         0.000       
      58        6.4526         0.000       
      57        5.6677         0.000       
      56        5.4468         0.000       
      55        4.7943         0.000       
      54        4.3304         0.000       
      53        4.0328         0.000       
      52        3.8618         0.000       
      51        3.3611         0.000       
      50        2.6936         0.000       
      49        2.6064         0.000       
      48        0.2982         0.000 < LUMO
      47       -1.6971         2.000 < HOMO
      46       -2.7824         2.000       
      45       -2.8576         2.000       
      44       -3.2942         2.000       
      43       -3.5842         2.000       
      42       -3.6120         2.000       
      41       -3.8537         2.000       
      40       -4.1072         2.000       
      39       -4.1986         2.000       
      38       -4.4719         2.000       
      37       -4.6270         2.000       
      36       -4.6788         2.000       
      35       -4.9250         2.000       
      34       -6.5630         2.000       
      33       -7.0161         2.000       
      32       -7.6359         2.000       
      31       -8.1830         2.000       
      30       -8.6705         2.000       
      29       -9.2529         2.000       
      28       -9.5716         2.000       
      27      -10.0409         2.000       
      26      -10.2389         2.000       
      25      -10.9301         2.000       
      24      -13.6222         2.000       
      23      -15.4558         2.000       
      22      -17.2154         2.000       
      21      -18.0739         2.000       
      20      -18.7844         2.000       
      19      -20.2549         2.000       
      18      -22.7497         2.000       
      17      -23.1241         2.000       
      16      -27.4844         2.000       
      15     -186.6579         2.000       
      14     -186.6662         2.000       
      13     -186.9379         2.000       
      12     -247.7040         2.000       
      11     -267.0880         2.000       
      10     -267.3336         2.000       
       9     -270.1395         2.000       
       8     -377.4841         2.000       
       7     -377.9414         2.000       
       6     -378.1091         2.000       
       5     -384.1791         2.000       
       4     -509.1326         2.000       
       3     -509.1381         2.000       
       2     -654.9306         2.000       
       1    -2746.9477         2.000       

AMS application finished. Exiting.
NORMAL TERMINATION
     Total cpu time:     113.19
  Total system time:       0.43
 Total elapsed time:     113.97
NORMAL TERMINATION
