
 *******************************************************************************
 *                                                                             *
 *  --------------------------------                                           *
 *   Amsterdam Modeling Suite (AMS)              2026.103                      *
 *  --------------------------------                                           *
 *                                               r260501 2026-05-01 873454b5   *
 *                                                                             *
 *                                                                             *
 *                              =================                              *
 *                              |               |                              *
 *                              |     A M S     |                              *
 *                              |               |                              *
 *                              =================                              *
 *                                                                             *
 *                                                                             *
 *   Online information and documentation:  https://www.scm.com/support/       *
 *   E-mail:  support@scm.com   info@scm.com                                   *
 *                                                                             *
 *   Scientific publications using AMS results must be properly referenced     *
 *   See the User Manuals (or the web site) for recommended citations          *
 *   The terms and conditions of the End User License Agreement apply to       *
 *   the use of AMS, https://www.scm.com/license-terms/                        *
 *                                                                             *
 **********************  x86_64_linux_intel / intelmpi  ************************
 
 Licensed to: Jong-June Jeon / University of Seoul 2026-06-02 13:44:15
 SCM User ID: u30731
  
 AMS 2026.103  RunTime: Jun04-2026 02:13:29  ShM Nodes: 1  Procs: 1

 AMS jobname: c3_eda
 AMS jobid  : 1178112212

 Start   directory: /gpfs/home1/yeseo1ee/projects/eda-asm-prediction/ADF_800/adf_outputs/batch_006/qmrxn20_sn2_A_E_A_D_B_B/
 Results directory: /gpfs/home1/yeseo1ee/projects/eda-asm-prediction/ADF_800/adf_outputs/batch_006/qmrxn20_sn2_A_E_A_D_B_B/c3_eda.results/
 Scratch directory: /tmp/amstmp_c3_eda_kid0.1178112212/

 RNG seed: -1064861858 -60506850 1120212575 1899968242 -1898955767 -1382390951 1926305124 -474922056



                      ************************************************************************
                      *  ADF 2026.103  RunTime: Jun04-2026 02:13:29  ShM Nodes: 1  Procs: 1  *
                      ************************************************************************
  

       ****************************
       * SINGLE POINT CALCULATION *
       ****************************

--------
Geometry
--------
Formula: C3H8ClFN
Atoms
  Index Symbol   x (angstrom)   y (angstrom)   z (angstrom)
      1     Cl    -1.92406374    -0.16903353     0.53145628 adf.f=fA
      2      C     0.33765140    -0.03541388     0.13542978 adf.f=fB
      3      H     1.51869860     1.64777177     0.47018154 adf.f=fB
      4      F     2.25912884    -0.17490854    -0.71247695 adf.f=fB
      5      C     0.50267092     1.45358630     0.12371610 adf.f=fB
      6      H     0.09923772    -0.55733977    -0.77352368 adf.f=fB
      7      H    -0.20347818     1.89425377     0.82974617 adf.f=fB
      8      N     0.81808459    -0.70925600     1.26254116 adf.f=fB
      9      H     1.82271251    -0.63559951     1.08639648 adf.f=fB
     10      H     0.55749886    -1.68504799     1.19410124 adf.f=fB
     11      C     0.32639071     2.01356819    -1.27758432 adf.f=fB
     12      H     1.08883045     1.55759518    -1.90851353 adf.f=fB
     13      H    -0.66764149     1.77325015    -1.66384089 adf.f=fB
     14      H     0.44298878     3.10225386    -1.29399939 adf.f=fB

Total System Charge             -1.00000


----------------
ADF Engine Input
----------------
 
   Basis
     Type TZ2P
     Core None
   End
   XC
     GGA BLYP
     Dispersion GRIMME3 BJDAMP
   End
   Symmetry NOSYM
   NumericalQuality Normal
   Unrestricted No
   SCF
     Iterations 200
     Converge 1.0e-6
   End
   fragments
     fA c1_fragA_ts.results/adf.rkf
     fB c2_fragB_ts.results/adf.rkf
   end
   etsnocv
     enocv 0.05
     ekmin 0.5
   end
   print etslowdin
   Save TAPE21
 

 Title: *** (NO TITLE) ***

 *** adf ***



 ===========================
 A T T A C H E D   F I L E S
 ===========================
  



 ===============================
 M O D E L   P A R A M E T E R S
 ===============================
  
 DENSITY FUNCTIONAL POTENTIAL (scf)
    LDA:                               Exchange only                           == Not Default ==
    Gradient Corrections:              Becke88 LYP                             == Not Default ==

 SPIN  (restricted / unrestr.)
    Molecule:                          Restricted                               
    Fragments:                         Restricted                               

 OTHER ASPECTS
    Relativistic Corrections:          scalar (ZORA,MAPA)                       

    Nuclear Charge Density Model:      Point Charge Nuclei                      
    Core Treatment:                    Frozen Orbital(s)                        

    Hyperfine or Zeeman Interaction:   ---                                      

 Settings for Grimme D3 dispersion correction

      damping                        BJ
      s6                          1.000
      s8                          2.700
      a1                          0.430
      a2                          4.236

 Other (technical) parameters

      alpha                      14.000
      version                         4
 


 Fragment File(s)
 ----------------
 fA:
         file : c1_fragA_ts.results/adf.rkf
         jobid: 1595476603
         title: *** adf ***
 fB:
         file : c2_fragB_ts.results/adf.rkf
         jobid: 1383266584
         title: *** adf ***



 ===============
 G E O M E T R Y  ***  3D  Molecule  ***
 ===============
  

 ATOMS
 =====                            X Y Z                    CHARGE
                                (Angstrom)             Nucl     +Core       At.Mass
                       --------------------------    ----------------       -------
    1  Cl             -1.9241   -0.1690    0.5315     17.00     17.00       34.9689
    2  C               0.3377   -0.0354    0.1354      6.00      6.00       12.0000
    3  H               1.5187    1.6478    0.4702      1.00      1.00        1.0078
    4  F               2.2591   -0.1749   -0.7125      9.00      9.00       18.9984
    5  C               0.5027    1.4536    0.1237      6.00      6.00       12.0000
    6  H               0.0992   -0.5573   -0.7735      1.00      1.00        1.0078
    7  H              -0.2035    1.8943    0.8297      1.00      1.00        1.0078
    8  N               0.8181   -0.7093    1.2625      7.00      7.00       14.0031
    9  H               1.8227   -0.6356    1.0864      1.00      1.00        1.0078
   10  H               0.5575   -1.6850    1.1941      1.00      1.00        1.0078
   11  C               0.3264    2.0136   -1.2776      6.00      6.00       12.0000
   12  H               1.0888    1.5576   -1.9085      1.00      1.00        1.0078
   13  H              -0.6676    1.7733   -1.6638      1.00      1.00        1.0078
   14  H               0.4430    3.1023   -1.2940      1.00      1.00        1.0078


 FRAGMENTS
 =========                                     Atoms in this Fragment     Cart. coord.s (Angstrom)
                                               -------------------------------------------------------
    1  fA                                                1  Cl          -1.9241   -0.1690    0.5315
    2  fB                                                2  C            0.3377   -0.0354    0.1354
                                                         5  C            0.5027    1.4536    0.1237
                                                        11  C            0.3264    2.0136   -1.2776
                                                         3  H            1.5187    1.6478    0.4702
                                                         6  H            0.0992   -0.5573   -0.7735
                                                         7  H           -0.2035    1.8943    0.8297
                                                         9  H            1.8227   -0.6356    1.0864
                                                        10  H            0.5575   -1.6850    1.1941
                                                        12  H            1.0888    1.5576   -1.9085
                                                        13  H           -0.6676    1.7733   -1.6638
                                                        14  H            0.4430    3.1023   -1.2940
                                                         4  F            2.2591   -0.1749   -0.7125
                                                         8  N            0.8181   -0.7093    1.2625


 Interatomic Distance Matrix (Angstrom)
 --------------------------------------

   1)     0.000
   2)     2.300   0.000
   3)     3.893   2.083   0.000
   4)     4.364   2.105   2.295   0.000
   5)     2.948   1.498   1.091   2.537   0.000
   6)     2.439   1.075   2.902   2.194   2.239   0.000
   7)     2.703   2.121   1.776   3.567   1.091   2.945   0.000
   8)     2.889   1.398   2.583   2.503   2.465   2.165   2.830   0.000
   9)     3.816   1.863   2.385   1.908   2.652   2.537   3.251   1.023   0.000
  10)     2.983   1.972   3.543   2.968   3.317   2.314   3.677   1.012   1.647   0.000
  11)     3.620   2.489   2.147   2.974   1.519   2.630   2.176   3.756   3.853   4.454
          0.000
  12)     4.244   2.698   2.419   2.409   2.118   2.596   3.047   3.907   3.784   4.519
          1.090   0.000
  13)     3.189   2.742   3.058   3.642   2.160   2.610   2.539   4.115   4.424   4.651
          1.093   1.786   0.000
  14)     4.431   3.450   2.527   3.792   2.175   3.712   2.527   4.605   4.641   5.396
          1.095   1.783   1.771   0.000

 Min. Distance =    1.0123
 Max. Distance =    5.3965



 =====================================
 S Y M M E T R Y ,   E L E C T R O N S
 =====================================
  
 Symmetry: NOSYM

 Irreducible Representations, including subspecies
 -------------------------------------------------
 A


 Configuration of Valence Electrons
 ==================================
 ( determined in the SCF procedure )

 Total:   60

 Net Charge: -1 (Nuclei minus Electrons)

 Aufbau principle for MO occupations will be applied through SCF cycle no.     100
 Thereafter, the program will assign electrons to MOs that are spatially
 similar to the occupied MOs in a "reference" cycle ("KeepOrbitals").
 The reference cycle is always the PREVIOUS cycle: it will evolve with
 the SCF procedure.
 ***************************************************************************************************



                                      ****************************************
                                      *  B U I L D : (Fragments, Functions)  *
                                      ****************************************
  

 The individual fragments are copies of the corresponding 'Master' fragments defined on the fragment files.
 However, they may have been rotated (and translated) with respect to the Master. The local coordinate axes
 of each fragment (which define for instance the spatial orientation in the current molecule of a fragment
 P:x orbital) are not necessarily those of the molecule.
 The local frame (if different from the molecular one) is printed to enable an interpretation of the expan-
 sion of an MO in Fragment Orbitals.



                                              ************************
                                              *  Fragment Type : fA  *
                                              ************************
  

 Fragment no.    1   (in the list of all fragments)
 -----------------
 The local coordinate frame is identical to the molecular frame.

 Check Atomic Coordinates:

                  Master (on file)          After Computed Tranformation               As specified on Input
           ----------------------------     ----------------------------     ---------------------------------
     1)    -1.92406  -0.16903   0.53146     -1.92406  -0.16903   0.53146       1  -1.92406  -0.16903   0.53146



                                              ************************
                                              *  Fragment Type : fB  *
                                              ************************
  

 Fragment no.    2   (in the list of all fragments)
 -----------------
 The local coordinate frame is identical to the molecular frame.

 Check Atomic Coordinates:

                  Master (on file)          After Computed Tranformation               As specified on Input
           ----------------------------     ----------------------------     ---------------------------------
     1)     0.33765  -0.03541   0.13543      0.33765  -0.03541   0.13543       2   0.33765  -0.03541   0.13543
     2)     0.50267   1.45359   0.12372      0.50267   1.45359   0.12372       5   0.50267   1.45359   0.12372
     3)     0.32639   2.01357  -1.27758      0.32639   2.01357  -1.27758      11   0.32639   2.01357  -1.27758
     4)     1.51870   1.64777   0.47018      1.51870   1.64777   0.47018       3   1.51870   1.64777   0.47018
     5)     0.09924  -0.55734  -0.77352      0.09924  -0.55734  -0.77352       6   0.09924  -0.55734  -0.77352
     6)    -0.20348   1.89425   0.82975     -0.20348   1.89425   0.82975       7  -0.20348   1.89425   0.82975
     7)     1.82271  -0.63560   1.08640      1.82271  -0.63560   1.08640       9   1.82271  -0.63560   1.08640
     8)     0.55750  -1.68505   1.19410      0.55750  -1.68505   1.19410      10   0.55750  -1.68505   1.19410
     9)     1.08883   1.55760  -1.90851      1.08883   1.55760  -1.90851      12   1.08883   1.55760  -1.90851
    10)    -0.66764   1.77325  -1.66384     -0.66764   1.77325  -1.66384      13  -0.66764   1.77325  -1.66384
    11)     0.44299   3.10225  -1.29400      0.44299   3.10225  -1.29400      14   0.44299   3.10225  -1.29400
    12)     2.25913  -0.17491  -0.71248      2.25913  -0.17491  -0.71248       4   2.25913  -0.17491  -0.71248
    13)     0.81808  -0.70926   1.26254      0.81808  -0.70926   1.26254       8   0.81808  -0.70926   1.26254



 =======
 S F O s  ***  (Symmetrized Fragment Orbitals)  ***
 =======
  
 SFOs are linear combinations of (valence) Fragment Orbitals (FOs), such that the SFOs transform as the
 irreducible representations of the (molecular) symmetry group. Each SFO is therefore characterized by
 an irrep of the molecule and by a few (or only one) generating FOs.
 The SFOs constitute a symmetry-adapted basis for the Fock matrix. The MO eigenvector coefficients in
 this basis provide a direct interpretation of the MOs in terms of Frontier Orbital Theory.

 The SFOs are combined with auxiliary Core Functions (CFs) to ensure orthogonalization on the (frozen)
 Core Orbitals (COs). The Core-orthogonalized SFOs (CSFOs) constitute the true Fock basis.

 The FOs, and hence also the (C)SFOs are combinations of the elementary basis functions (BAS). The basis
 functions that participate in the description of the SFOs depend on the irrep. The indices of the
 involved functions are printed below for each irrep.
 (The complete list of primitive basis functions is printed in another section)

 Total nr. of (C)SFOs (summation over all irreps) :   252

 NOTE: a (C)SFO that is defined as a combination of more than one FO is usually NOT normalized.



                                       === A ===
 Nr. of SFOs :  252
 Cartesian basis functions that participate in this irrep (total number =   284) :
      1     2     3     4    11    12    13     5     8    14
     17    20     6     9    15    18    21     7    10    16
     19    22    23    24    25    26    27    28    29    30
     31    32    33    34    35    36    37    38    39    40
     41    42    43    44    47    50    45    48    51    46
     49    52    53    54    55    56    57    58    59    60
     61    62    63    64    65    66    67    68    69    70
     71    72    73    74    77    80    75    78    81    76
     79    82    83    84    85    86    87    88    89    90
     91    92    93    94    95    96    97    98    99   100
    101   102   103   104   107   110   105   108   111   106
    109   112   113   114   115   116   117   118   119   120
    121   122   123   124   125   126   127   128   129   130
    131   132   133   134   135   136   137   138   139   140
    141   142   143   144   145   146   147   148   149   150
    151   152   153   154   155   156   157   158   159   160
    161   162   163   164   165   166   167   168   169   170
    171   172   173   174   175   176   177   178   179   180
    181   182   183   184   185   186   187   188   189   190
    191   192   193   194   195   196   197   198   199   200
    201   202   203   204   205   206   207   208   209   210
    211   212   213   214   215   216   217   218   219   220
    221   222   223   224   225   226   227   228   229   230
    233   236   231   234   237   232   235   238   239   240
    241   242   243   244   245   246   247   248   249   250
    251   252   253   254   255   256   257   258   259   260
    263   266   261   264   267   262   265   268   269   270
    271   272   273   274   275   276   277   278   279   280
    281   282   283   284

    SFO  (index         Fragment          Generating    Expansion in Fragment Orbitals
  indx  incl.CFs)   Occup   Orb.Energy   FragmentType  Coeff.   Orbital     on Fragment
 --------------------------------------------------------------------------------------
     1       1      2.000    -100.735 au  fA            1.00      1 A               1
                        (   -2741.135 eV)
     2       2      2.000      -8.888 au  fA            1.00      2 A               1
                        (    -241.848 eV)
     3       3      2.000      -6.648 au  fA            1.00      3 A               1
                        (    -180.901 eV)
     4       4      2.000      -6.648 au  fA            1.00      4 A               1
                        (    -180.901 eV)
     5       5      2.000      -6.648 au  fA            1.00      5 A               1
                        (    -180.901 eV)
     6       6      2.000      -0.390 au  fA            1.00      6 A               1
                        (     -10.619 eV)
     7       7      2.000       0.034 au  fA            1.00      7 A               1
                        (       0.928 eV)
     8       8      2.000       0.034 au  fA            1.00      8 A               1
                        (       0.928 eV)
     9       9      2.000       0.034 au  fA            1.00      9 A               1
                        (       0.928 eV)
    10      10       --         0.473 au  fA            1.00     10 A               1
                        (      12.862 eV)
    11      11       --         0.489 au  fA            1.00     11 A               1
                        (      13.303 eV)
    12      12       --         0.489 au  fA            1.00     12 A               1
                        (      13.303 eV)
    13      13       --         0.489 au  fA            1.00     13 A               1
                        (      13.303 eV)
    14      14       --         0.743 au  fA            1.00     14 A               1
                        (      20.220 eV)
    15      15       --         0.743 au  fA            1.00     15 A               1
                        (      20.220 eV)
    16      16       --         0.743 au  fA            1.00     16 A               1
                        (      20.220 eV)
    17      17       --         0.743 au  fA            1.00     17 A               1
                        (      20.220 eV)
    18      18       --         0.743 au  fA            1.00     18 A               1
                        (      20.220 eV)
    19      19       --         1.518 au  fA            1.00     19 A               1
                        (      41.317 eV)
    20      20       --         1.518 au  fA            1.00     20 A               1
                        (      41.317 eV)
    21      21       --         1.518 au  fA            1.00     21 A               1
                        (      41.317 eV)
    22      22       --         1.518 au  fA            1.00     22 A               1
                        (      41.317 eV)
    23      23       --         1.518 au  fA            1.00     23 A               1
                        (      41.317 eV)
    24      24       --         1.518 au  fA            1.00     24 A               1
                        (      41.317 eV)
    25      25       --         1.518 au  fA            1.00     25 A               1
                        (      41.317 eV)
    26      26       --         2.339 au  fA            1.00     26 A               1
                        (      63.651 eV)
    27      27       --         2.448 au  fA            1.00     27 A               1
                        (      66.624 eV)
    28      28       --         2.448 au  fA            1.00     28 A               1
                        (      66.624 eV)
    29      29       --         2.448 au  fA            1.00     29 A               1
                        (      66.624 eV)
    30      30       --        12.992 au  fA            1.00     30 A               1
                        (     353.542 eV)
    31      31       --        19.044 au  fA            1.00     31 A               1
                        (     518.220 eV)
    32      32       --        19.044 au  fA            1.00     32 A               1
                        (     518.220 eV)
    33      33       --        19.044 au  fA            1.00     33 A               1
                        (     518.220 eV)
    34      34       --       205.706 au  fA            1.00     34 A               1
                        (    5597.551 eV)
    35      35      2.000     -24.185 au  fB            1.00      1 A               2
                        (    -658.116 eV)
    36      36      2.000     -14.055 au  fB            1.00      2 A               2
                        (    -382.453 eV)
    37      37      2.000     -10.040 au  fB            1.00      3 A               2
                        (    -273.201 eV)
    38      38      2.000      -9.939 au  fB            1.00      4 A               2
                        (    -270.464 eV)
    39      39      2.000      -9.912 au  fB            1.00      5 A               2
                        (    -269.722 eV)
    40      40      2.000      -0.930 au  fB            1.00      6 A               2
                        (     -25.319 eV)
    41      41      2.000      -0.864 au  fB            1.00      7 A               2
                        (     -23.511 eV)
    42      42      2.000      -0.724 au  fB            1.00      8 A               2
                        (     -19.695 eV)
    43      43      2.000      -0.610 au  fB            1.00      9 A               2
                        (     -16.606 eV)
    44      44      2.000      -0.550 au  fB            1.00     10 A               2
                        (     -14.973 eV)
    45      45      2.000      -0.488 au  fB            1.00     11 A               2
                        (     -13.272 eV)
    46      46      2.000      -0.459 au  fB            1.00     12 A               2
                        (     -12.484 eV)
    47      47      2.000      -0.419 au  fB            1.00     13 A               2
                        (     -11.394 eV)
    48      48      2.000      -0.401 au  fB            1.00     14 A               2
                        (     -10.919 eV)
    49      49      2.000      -0.341 au  fB            1.00     15 A               2
                        (      -9.272 eV)
    50      50      2.000      -0.330 au  fB            1.00     16 A               2
                        (      -8.967 eV)
    51      51      2.000      -0.323 au  fB            1.00     17 A               2
                        (      -8.792 eV)
    52      52      2.000      -0.290 au  fB            1.00     18 A               2
                        (      -7.895 eV)
    53      53      2.000      -0.256 au  fB            1.00     19 A               2
                        (      -6.979 eV)
    54      54      2.000      -0.236 au  fB            1.00     20 A               2
                        (      -6.434 eV)
    55      55      2.000      -0.231 au  fB            1.00     21 A               2
                        (      -6.288 eV)
    56      56       --        -0.130 au  fB            1.00     22 A               2
                        (      -3.537 eV)
    57      57       --        -0.015 au  fB            1.00     23 A               2
                        (      -0.414 eV)
    58      58       --         0.001 au  fB            1.00     24 A               2
                        (       0.036 eV)
    59      59       --         0.017 au  fB            1.00     25 A               2
                        (       0.452 eV)
    60      60       --         0.036 au  fB            1.00     26 A               2
                        (       0.991 eV)
    61      61       --         0.056 au  fB            1.00     27 A               2
                        (       1.520 eV)
    62      62       --         0.061 au  fB            1.00     28 A               2
                        (       1.656 eV)
    63      63       --         0.088 au  fB            1.00     29 A               2
                        (       2.393 eV)
    64      64       --         0.091 au  fB            1.00     30 A               2
                        (       2.472 eV)
    65      65       --         0.119 au  fB            1.00     31 A               2
                        (       3.245 eV)
    66      66       --         0.135 au  fB            1.00     32 A               2
                        (       3.665 eV)
    67      67       --         0.153 au  fB            1.00     33 A               2
                        (       4.154 eV)
    68      68       --         0.164 au  fB            1.00     34 A               2
                        (       4.454 eV)
    69      69       --         0.171 au  fB            1.00     35 A               2
                        (       4.661 eV)
    70      70       --         0.181 au  fB            1.00     36 A               2
                        (       4.922 eV)
    71      71       --         0.201 au  fB            1.00     37 A               2
                        (       5.471 eV)
    72      72       --         0.210 au  fB            1.00     38 A               2
                        (       5.711 eV)
    73      73       --         0.246 au  fB            1.00     39 A               2
                        (       6.706 eV)
    74      74       --         0.257 au  fB            1.00     40 A               2
                        (       6.983 eV)
    75      75       --         0.263 au  fB            1.00     41 A               2
                        (       7.169 eV)
    76      76       --         0.293 au  fB            1.00     42 A               2
                        (       7.983 eV)
    77      77       --         0.320 au  fB            1.00     43 A               2
                        (       8.711 eV)
    78      78       --         0.328 au  fB            1.00     44 A               2
                        (       8.937 eV)
    79      79       --         0.361 au  fB            1.00     45 A               2
                        (       9.813 eV)
    80      80       --         0.376 au  fB            1.00     46 A               2
                        (      10.219 eV)
    81      81       --         0.394 au  fB            1.00     47 A               2
                        (      10.734 eV)
    82      82       --         0.405 au  fB            1.00     48 A               2
                        (      11.007 eV)
    83      83       --         0.409 au  fB            1.00     49 A               2
                        (      11.121 eV)
    84      84       --         0.438 au  fB            1.00     50 A               2
                        (      11.919 eV)
    85      85       --         0.447 au  fB            1.00     51 A               2
                        (      12.175 eV)
    86      86       --         0.462 au  fB            1.00     52 A               2
                        (      12.572 eV)
    87      87       --         0.466 au  fB            1.00     53 A               2
                        (      12.680 eV)
    88      88       --         0.524 au  fB            1.00     54 A               2
                        (      14.272 eV)
    89      89       --         0.550 au  fB            1.00     55 A               2
                        (      14.961 eV)
    90      90       --         0.635 au  fB            1.00     56 A               2
                        (      17.283 eV)
    91      91       --         0.659 au  fB            1.00     57 A               2
                        (      17.946 eV)
    92      92       --         0.663 au  fB            1.00     58 A               2
                        (      18.044 eV)
    93      93       --         0.749 au  fB            1.00     59 A               2
                        (      20.368 eV)
    94      94       --         0.758 au  fB            1.00     60 A               2
                        (      20.638 eV)
    95      95       --         0.812 au  fB            1.00     61 A               2
                        (      22.093 eV)
    96      96       --         0.826 au  fB            1.00     62 A               2
                        (      22.474 eV)
    97      97       --         0.833 au  fB            1.00     63 A               2
                        (      22.663 eV)
    98      98       --         0.886 au  fB            1.00     64 A               2
                        (      24.101 eV)
    99      99       --         0.908 au  fB            1.00     65 A               2
                        (      24.703 eV)
   100     100       --         0.930 au  fB            1.00     66 A               2
                        (      25.298 eV)
   101     101       --         0.973 au  fB            1.00     67 A               2
                        (      26.481 eV)
   102     102       --         0.994 au  fB            1.00     68 A               2
                        (      27.042 eV)
   103     103       --         1.016 au  fB            1.00     69 A               2
                        (      27.647 eV)
   104     104       --         1.043 au  fB            1.00     70 A               2
                        (      28.369 eV)
   105     105       --         1.089 au  fB            1.00     71 A               2
                        (      29.635 eV)
   106     106       --         1.094 au  fB            1.00     72 A               2
                        (      29.771 eV)
   107     107       --         1.120 au  fB            1.00     73 A               2
                        (      30.467 eV)
   108     108       --         1.141 au  fB            1.00     74 A               2
                        (      31.054 eV)
   109     109       --         1.165 au  fB            1.00     75 A               2
                        (      31.708 eV)
   110     110       --         1.183 au  fB            1.00     76 A               2
                        (      32.188 eV)
   111     111       --         1.215 au  fB            1.00     77 A               2
                        (      33.052 eV)
   112     112       --         1.250 au  fB            1.00     78 A               2
                        (      34.015 eV)
   113     113       --         1.260 au  fB            1.00     79 A               2
                        (      34.300 eV)
   114     114       --         1.275 au  fB            1.00     80 A               2
                        (      34.697 eV)
   115     115       --         1.303 au  fB            1.00     81 A               2
                        (      35.454 eV)
   116     116       --         1.315 au  fB            1.00     82 A               2
                        (      35.781 eV)
   117     117       --         1.333 au  fB            1.00     83 A               2
                        (      36.281 eV)
   118     118       --         1.384 au  fB            1.00     84 A               2
                        (      37.668 eV)
   119     119       --         1.422 au  fB            1.00     85 A               2
                        (      38.693 eV)
   120     120       --         1.427 au  fB            1.00     86 A               2
                        (      38.829 eV)
   121     121       --         1.449 au  fB            1.00     87 A               2
                        (      39.425 eV)
   122     122       --         1.484 au  fB            1.00     88 A               2
                        (      40.379 eV)
   123     123       --         1.513 au  fB            1.00     89 A               2
                        (      41.175 eV)
   124     124       --         1.574 au  fB            1.00     90 A               2
                        (      42.825 eV)
   125     125       --         1.616 au  fB            1.00     91 A               2
                        (      43.960 eV)
   126     126       --         1.646 au  fB            1.00     92 A               2
                        (      44.799 eV)
   127     127       --         1.664 au  fB            1.00     93 A               2
                        (      45.288 eV)
   128     128       --         1.699 au  fB            1.00     94 A               2
                        (      46.223 eV)
   129     129       --         1.765 au  fB            1.00     95 A               2
                        (      48.024 eV)
   130     130       --         1.784 au  fB            1.00     96 A               2
                        (      48.546 eV)
   131     131       --         1.813 au  fB            1.00     97 A               2
                        (      49.348 eV)
   132     132       --         1.872 au  fB            1.00     98 A               2
                        (      50.941 eV)
   133     133       --         1.879 au  fB            1.00     99 A               2
                        (      51.129 eV)
   134     134       --         1.912 au  fB            1.00    100 A               2
                        (      52.039 eV)
   135     135       --         1.938 au  fB            1.00    101 A               2
                        (      52.735 eV)
   136     136       --         1.976 au  fB            1.00    102 A               2
                        (      53.766 eV)
   137     137       --         2.005 au  fB            1.00    103 A               2
                        (      54.561 eV)
   138     138       --         2.035 au  fB            1.00    104 A               2
                        (      55.372 eV)
   139     139       --         2.091 au  fB            1.00    105 A               2
                        (      56.906 eV)
   140     140       --         2.151 au  fB            1.00    106 A               2
                        (      58.531 eV)
   141     141       --         2.173 au  fB            1.00    107 A               2
                        (      59.139 eV)
   142     142       --         2.185 au  fB            1.00    108 A               2
                        (      59.464 eV)
   143     143       --         2.275 au  fB            1.00    109 A               2
                        (      61.911 eV)
   144     144       --         2.299 au  fB            1.00    110 A               2
                        (      62.557 eV)
   145     145       --         2.365 au  fB            1.00    111 A               2
                        (      64.368 eV)
   146     146       --         2.376 au  fB            1.00    112 A               2
                        (      64.654 eV)
   147     147       --         2.395 au  fB            1.00    113 A               2
                        (      65.180 eV)
   148     148       --         2.474 au  fB            1.00    114 A               2
                        (      67.331 eV)
   149     149       --         2.512 au  fB            1.00    115 A               2
                        (      68.361 eV)
   150     150       --         2.530 au  fB            1.00    116 A               2
                        (      68.834 eV)
   151     151       --         2.579 au  fB            1.00    117 A               2
                        (      70.166 eV)
   152     152       --         2.690 au  fB            1.00    118 A               2
                        (      73.196 eV)
   153     153       --         2.711 au  fB            1.00    119 A               2
                        (      73.761 eV)
   154     154       --         2.766 au  fB            1.00    120 A               2
                        (      75.272 eV)
   155     155       --         2.808 au  fB            1.00    121 A               2
                        (      76.411 eV)
   156     156       --         2.844 au  fB            1.00    122 A               2
                        (      77.381 eV)
   157     157       --         2.857 au  fB            1.00    123 A               2
                        (      77.754 eV)
   158     158       --         2.877 au  fB            1.00    124 A               2
                        (      78.277 eV)
   159     159       --         2.907 au  fB            1.00    125 A               2
                        (      79.099 eV)
   160     160       --         2.940 au  fB            1.00    126 A               2
                        (      80.000 eV)
   161     161       --         2.949 au  fB            1.00    127 A               2
                        (      80.246 eV)
   162     162       --         2.962 au  fB            1.00    128 A               2
                        (      80.610 eV)
   163     163       --         2.991 au  fB            1.00    129 A               2
                        (      81.384 eV)
   164     164       --         3.010 au  fB            1.00    130 A               2
                        (      81.917 eV)
   165     165       --         3.055 au  fB            1.00    131 A               2
                        (      83.124 eV)
   166     166       --         3.095 au  fB            1.00    132 A               2
                        (      84.210 eV)
   167     167       --         3.108 au  fB            1.00    133 A               2
                        (      84.577 eV)
   168     168       --         3.130 au  fB            1.00    134 A               2
                        (      85.159 eV)
   169     169       --         3.188 au  fB            1.00    135 A               2
                        (      86.737 eV)
   170     170       --         3.235 au  fB            1.00    136 A               2
                        (      88.036 eV)
   171     171       --         3.295 au  fB            1.00    137 A               2
                        (      89.661 eV)
   172     172       --         3.386 au  fB            1.00    138 A               2
                        (      92.145 eV)
   173     173       --         3.435 au  fB            1.00    139 A               2
                        (      93.483 eV)
   174     174       --         3.448 au  fB            1.00    140 A               2
                        (      93.830 eV)
   175     175       --         3.459 au  fB            1.00    141 A               2
                        (      94.117 eV)
   176     176       --         3.480 au  fB            1.00    142 A               2
                        (      94.687 eV)
   177     177       --         3.490 au  fB            1.00    143 A               2
                        (      94.970 eV)
   178     178       --         3.546 au  fB            1.00    144 A               2
                        (      96.497 eV)
   179     179       --         3.573 au  fB            1.00    145 A               2
                        (      97.215 eV)
   180     180       --         3.579 au  fB            1.00    146 A               2
                        (      97.394 eV)
   181     181       --         3.626 au  fB            1.00    147 A               2
                        (      98.673 eV)
   182     182       --         3.643 au  fB            1.00    148 A               2
                        (      99.131 eV)
   183     183       --         3.678 au  fB            1.00    149 A               2
                        (     100.081 eV)
   184     184       --         3.709 au  fB            1.00    150 A               2
                        (     100.934 eV)
   185     185       --         3.767 au  fB            1.00    151 A               2
                        (     102.513 eV)
   186     186       --         3.779 au  fB            1.00    152 A               2
                        (     102.820 eV)
   187     187       --         3.836 au  fB            1.00    153 A               2
                        (     104.379 eV)
   188     188       --         3.860 au  fB            1.00    154 A               2
                        (     105.035 eV)
   189     189       --         3.913 au  fB            1.00    155 A               2
                        (     106.475 eV)
   190     190       --         3.932 au  fB            1.00    156 A               2
                        (     106.993 eV)
   191     191       --         4.001 au  fB            1.00    157 A               2
                        (     108.878 eV)
   192     192       --         4.025 au  fB            1.00    158 A               2
                        (     109.519 eV)
   193     193       --         4.139 au  fB            1.00    159 A               2
                        (     112.615 eV)
   194     194       --         4.206 au  fB            1.00    160 A               2
                        (     114.450 eV)
   195     195       --         4.257 au  fB            1.00    161 A               2
                        (     115.850 eV)
   196     196       --         4.335 au  fB            1.00    162 A               2
                        (     117.951 eV)
   197     197       --         4.374 au  fB            1.00    163 A               2
                        (     119.029 eV)
   198     198       --         4.478 au  fB            1.00    164 A               2
                        (     121.853 eV)
   199     199       --         4.519 au  fB            1.00    165 A               2
                        (     122.980 eV)
   200     200       --         4.570 au  fB            1.00    166 A               2
                        (     124.348 eV)
   201     201       --         4.580 au  fB            1.00    167 A               2
                        (     124.634 eV)
   202     202       --         4.672 au  fB            1.00    168 A               2
                        (     127.139 eV)
   203     203       --         4.696 au  fB            1.00    169 A               2
                        (     127.779 eV)
   204     204       --         4.777 au  fB            1.00    170 A               2
                        (     129.994 eV)
   205     205       --         4.837 au  fB            1.00    171 A               2
                        (     131.633 eV)
   206     206       --         4.878 au  fB            1.00    172 A               2
                        (     132.733 eV)
   207     207       --         4.947 au  fB            1.00    173 A               2
                        (     134.623 eV)
   208     208       --         5.032 au  fB            1.00    174 A               2
                        (     136.936 eV)
   209     209       --         5.073 au  fB            1.00    175 A               2
                        (     138.051 eV)
   210     210       --         5.105 au  fB            1.00    176 A               2
                        (     138.913 eV)
   211     211       --         5.180 au  fB            1.00    177 A               2
                        (     140.962 eV)
   212     212       --         5.241 au  fB            1.00    178 A               2
                        (     142.609 eV)
   213     213       --         5.267 au  fB            1.00    179 A               2
                        (     143.336 eV)
   214     214       --         5.355 au  fB            1.00    180 A               2
                        (     145.730 eV)
   215     215       --         5.392 au  fB            1.00    181 A               2
                        (     146.737 eV)
   216     216       --         5.449 au  fB            1.00    182 A               2
                        (     148.272 eV)
   217     217       --         5.498 au  fB            1.00    183 A               2
                        (     149.611 eV)
   218     218       --         5.568 au  fB            1.00    184 A               2
                        (     151.504 eV)
   219     219       --         5.668 au  fB            1.00    185 A               2
                        (     154.232 eV)
   220     220       --         5.715 au  fB            1.00    186 A               2
                        (     155.525 eV)
   221     221       --         5.925 au  fB            1.00    187 A               2
                        (     161.217 eV)
   222     222       --         5.993 au  fB            1.00    188 A               2
                        (     163.078 eV)
   223     223       --         6.050 au  fB            1.00    189 A               2
                        (     164.635 eV)
   224     224       --         6.230 au  fB            1.00    190 A               2
                        (     169.526 eV)
   225     225       --         6.315 au  fB            1.00    191 A               2
                        (     171.828 eV)
   226     226       --         6.342 au  fB            1.00    192 A               2
                        (     172.563 eV)
   227     227       --         6.425 au  fB            1.00    193 A               2
                        (     174.846 eV)
   228     228       --         6.477 au  fB            1.00    194 A               2
                        (     176.240 eV)
   229     229       --         6.507 au  fB            1.00    195 A               2
                        (     177.077 eV)
   230     230       --         6.561 au  fB            1.00    196 A               2
                        (     178.533 eV)
   231     231       --         6.607 au  fB            1.00    197 A               2
                        (     179.792 eV)
   232     232       --         6.628 au  fB            1.00    198 A               2
                        (     180.359 eV)
   233     233       --         6.724 au  fB            1.00    199 A               2
                        (     182.969 eV)
   234     234       --         6.754 au  fB            1.00    200 A               2
                        (     183.797 eV)
   235     235       --         6.898 au  fB            1.00    201 A               2
                        (     187.697 eV)
   236     236       --         7.022 au  fB            1.00    202 A               2
                        (     191.084 eV)
   237     237       --         7.073 au  fB            1.00    203 A               2
                        (     192.477 eV)
   238     238       --         7.275 au  fB            1.00    204 A               2
                        (     197.965 eV)
   239     239       --         7.351 au  fB            1.00    205 A               2
                        (     200.032 eV)
   240     240       --         7.436 au  fB            1.00    206 A               2
                        (     202.331 eV)
   241     241       --         7.558 au  fB            1.00    207 A               2
                        (     205.671 eV)
   242     242       --         7.672 au  fB            1.00    208 A               2
                        (     208.767 eV)
   243     243       --         7.973 au  fB            1.00    209 A               2
                        (     216.949 eV)
   244     244       --         8.762 au  fB            1.00    210 A               2
                        (     238.421 eV)
   245     245       --         8.858 au  fB            1.00    211 A               2
                        (     241.040 eV)
   246     246       --         9.397 au  fB            1.00    212 A               2
                        (     255.707 eV)
   247     247       --         9.810 au  fB            1.00    213 A               2
                        (     266.954 eV)
   248     248       --        49.546 au  fB            1.00    214 A               2
                        (    1348.212 eV)
   249     249       --        54.641 au  fB            1.00    215 A               2
                        (    1486.857 eV)
   250     250       --        57.223 au  fB            1.00    216 A               2
                        (    1557.110 eV)
   251     251       --        59.351 au  fB            1.00    217 A               2
                        (    1615.033 eV)
   252     252       --        71.396 au  fB            1.00    218 A               2
                        (    1942.787 eV)



 ================================
 (Slater-type)  F U N C T I O N S  ***  (Basis and Fit)  ***
 ================================
  

 Atom Type    1  (Cl)
 ==============

 Valence Basis Sets:  14
 -----------------------
   1 S   20.300000
   1 S   15.250000
   2 S    6.250000
   2 S    4.450000
   2 P    8.850000
   2 P    5.050000
   3 S    3.450000
   3 S    2.300000
   3 S    1.600000
   3 P    3.350000
   3 P    2.050000
   3 P    1.200000
   3 D    2.000000
   4 F    2.000000

 Atom Type    2  (C)
 ==============

 Valence Basis Sets:  10
 -----------------------
   1 S    7.680000
   1 S    5.000000
   2 S    1.280000
   2 S    2.100000
   2 S    4.600000
   2 P    0.820000
   2 P    1.480000
   2 P    2.940000
   3 D    2.200000
   4 F    3.300000

 Atom Type    3  (H)
 ==============

 Valence Basis Sets:   5
 -----------------------
   1 S    0.690000
   1 S    0.920000
   1 S    1.580000
   2 P    1.250000
   3 D    2.500000

 Atom Type    4  (F)
 ==============

 Valence Basis Sets:  10
 -----------------------
   1 S   10.880000
   1 S    7.700000
   2 S    3.240000
   2 S    1.940000
   2 S    0.740000
   2 P    4.540000
   2 P    2.300000
   2 P    1.240000
   3 D    2.000000
   4 F    3.000000

 Atom Type    5  (N)
 ==============

 Valence Basis Sets:  10
 -----------------------
   1 S    8.740000
   1 S    5.900000
   2 S    5.150000
   2 S    2.500000
   2 S    1.500000
   2 P    3.680000
   2 P    1.880000
   2 P    1.000000
   3 D    2.200000
   4 F    3.300000


 BAS: List of all Elementary Cartesian Basis Functions
 =====================================================

 The numbering in the list below (to the right of the function characteristics) is referred
 to in print-outs of MO eigenvectors and Mulliken populations in the BAS representation
 (as contrasted to the SFO representation).

 Notes:
 1. The functions are characterized by a polynomial prefactor (powers of x,y,z and r) and
    an exponential decay factor alpha.
 2. Since the basis sets are specific for an atom TYPE, the individual functions occur on
    all atoms of that type.
 3. The word 'Core' in the left margin signals that it is a Core Function (CF) : not a
    degree of freedom in the valence set, but only used to ensure orthogonalization of
    the other valence basis functions on the frozen Core Orbitals.


 (power of) X  Y  Z  R     Alpha  on Atom
            ==========     =====     ==========

 Cl                                   1
                                  ---------------------------------------------------------------------------
            0  0  0  0    20.300      1
            0  0  0  0    15.250      2
            0  0  0  1     6.250      3
            0  0  0  1     4.450      4
            1  0  0  0     8.850      5
            0  1  0  0     8.850      6
            0  0  1  0     8.850      7
            1  0  0  0     5.050      8
            0  1  0  0     5.050      9
            0  0  1  0     5.050     10
            0  0  0  2     3.450     11
            0  0  0  2     2.300     12
            0  0  0  2     1.600     13
            1  0  0  1     3.350     14
            0  1  0  1     3.350     15
            0  0  1  1     3.350     16
            1  0  0  1     2.050     17
            0  1  0  1     2.050     18
            0  0  1  1     2.050     19
            1  0  0  1     1.200     20
            0  1  0  1     1.200     21
            0  0  1  1     1.200     22
            2  0  0  0     2.000     23
            1  1  0  0     2.000     24
            1  0  1  0     2.000     25
            0  2  0  0     2.000     26
            0  1  1  0     2.000     27
            0  0  2  0     2.000     28
            3  0  0  0     2.000     29
            2  1  0  0     2.000     30
            2  0  1  0     2.000     31
            1  2  0  0     2.000     32
            1  1  1  0     2.000     33
            1  0  2  0     2.000     34
            0  3  0  0     2.000     35
            0  2  1  0     2.000     36
            0  1  2  0     2.000     37
            0  0  3  0     2.000     38

 C                                    2    3    4
                                  ---------------------------------------------------------------------------
            0  0  0  0     7.680     39   69   99
            0  0  0  0     5.000     40   70  100
            0  0  0  1     1.280     41   71  101
            0  0  0  1     2.100     42   72  102
            0  0  0  1     4.600     43   73  103
            1  0  0  0     0.820     44   74  104
            0  1  0  0     0.820     45   75  105
            0  0  1  0     0.820     46   76  106
            1  0  0  0     1.480     47   77  107
            0  1  0  0     1.480     48   78  108
            0  0  1  0     1.480     49   79  109
            1  0  0  0     2.940     50   80  110
            0  1  0  0     2.940     51   81  111
            0  0  1  0     2.940     52   82  112
            2  0  0  0     2.200     53   83  113
            1  1  0  0     2.200     54   84  114
            1  0  1  0     2.200     55   85  115
            0  2  0  0     2.200     56   86  116
            0  1  1  0     2.200     57   87  117
            0  0  2  0     2.200     58   88  118
            3  0  0  0     3.300     59   89  119
            2  1  0  0     3.300     60   90  120
            2  0  1  0     3.300     61   91  121
            1  2  0  0     3.300     62   92  122
            1  1  1  0     3.300     63   93  123
            1  0  2  0     3.300     64   94  124
            0  3  0  0     3.300     65   95  125
            0  2  1  0     3.300     66   96  126
            0  1  2  0     3.300     67   97  127
            0  0  3  0     3.300     68   98  128

 H                                    5    6    7    8    9   10   11   12
                                  ---------------------------------------------------------------------------
            0  0  0  0     0.690    129  141  153  165  177  189  201  213
            0  0  0  0     0.920    130  142  154  166  178  190  202  214
            0  0  0  0     1.580    131  143  155  167  179  191  203  215
            1  0  0  0     1.250    132  144  156  168  180  192  204  216
            0  1  0  0     1.250    133  145  157  169  181  193  205  217
            0  0  1  0     1.250    134  146  158  170  182  194  206  218
            2  0  0  0     2.500    135  147  159  171  183  195  207  219
            1  1  0  0     2.500    136  148  160  172  184  196  208  220
            1  0  1  0     2.500    137  149  161  173  185  197  209  221
            0  2  0  0     2.500    138  150  162  174  186  198  210  222
            0  1  1  0     2.500    139  151  163  175  187  199  211  223
            0  0  2  0     2.500    140  152  164  176  188  200  212  224

 F                                   13
                                  ---------------------------------------------------------------------------
            0  0  0  0    10.880    225
            0  0  0  0     7.700    226
            0  0  0  1     3.240    227
            0  0  0  1     1.940    228
            0  0  0  1     0.740    229
            1  0  0  0     4.540    230
            0  1  0  0     4.540    231
            0  0  1  0     4.540    232
            1  0  0  0     2.300    233
            0  1  0  0     2.300    234
            0  0  1  0     2.300    235
            1  0  0  0     1.240    236
            0  1  0  0     1.240    237
            0  0  1  0     1.240    238
            2  0  0  0     2.000    239
            1  1  0  0     2.000    240
            1  0  1  0     2.000    241
            0  2  0  0     2.000    242
            0  1  1  0     2.000    243
            0  0  2  0     2.000    244
            3  0  0  0     3.000    245
            2  1  0  0     3.000    246
            2  0  1  0     3.000    247
            1  2  0  0     3.000    248
            1  1  1  0     3.000    249
            1  0  2  0     3.000    250
            0  3  0  0     3.000    251
            0  2  1  0     3.000    252
            0  1  2  0     3.000    253
            0  0  3  0     3.000    254

 N                                   14
                                  ---------------------------------------------------------------------------
            0  0  0  0     8.740    255
            0  0  0  0     5.900    256
            0  0  0  1     5.150    257
            0  0  0  1     2.500    258
            0  0  0  1     1.500    259
            1  0  0  0     3.680    260
            0  1  0  0     3.680    261
            0  0  1  0     3.680    262
            1  0  0  0     1.880    263
            0  1  0  0     1.880    264
            0  0  1  0     1.880    265
            1  0  0  0     1.000    266
            0  1  0  0     1.000    267
            0  0  1  0     1.000    268
            2  0  0  0     2.200    269
            1  1  0  0     2.200    270
            1  0  1  0     2.200    271
            0  2  0  0     2.200    272
            0  1  1  0     2.200    273
            0  0  2  0     2.200    274
            3  0  0  0     3.300    275
            2  1  0  0     3.300    276
            2  0  1  0     3.300    277
            1  2  0  0     3.300    278
            1  1  1  0     3.300    279
            1  0  2  0     3.300    280
            0  3  0  0     3.300    281
            0  2  1  0     3.300    282
            0  1  2  0     3.300    283
            0  0  3  0     3.300    284

 Total number of charge fitting functions (nprimf)       927
 Total number of Cartesian basis functions (naos)        284
 Total number of Cartesian core functions  (ncos)          0

 ***************************************************************************************************



                                              ***********************
                                              *  T E C H N I C A L  *
                                              ***********************
  



 =============================================================
 P A R A L L E L I Z A T I O N  and  V E C T O R I Z A T I O N
 =============================================================
  
 Nr of parallel processes:                                1
 Maximum vector length in NumInt loops:                 128



 =====================
 S C F   U P D A T E S
 =====================
  
 Max. nr. of cycles:                               200
 Convergence criterion:                              0.0000010000
   secondary criterion:                              0.0010000000

 Mix parameter (when DIIS does not apply):           0.2000000000
 Mixed ADIIS+SDIIS will be used                  
    Max number of expansion vectors:                10
    Pure ADIIS when Max([F,P]) is above              0.1000000000
    Pure SDIIS when Max([F,P]) is below              0.0010000000
 Automatic ElectronSmearing (in case of problematic SCF convergence) disabled



 =================
 P R E C I S I O N  ***  (General: NumInt, NeglectFunctionTails, ...)  ***
 =================
  

 NumInt:           Target precision:                 4.0000000000
 -------           Initial precision:                4.0000000000
                   Min. precision (optimization):    4.0000000000

 Neglect Functions:          Basis functions:        0.1000000000E-05
 ------------------          Fit functions:          0.1000000000E-05



 ===========================
 L I N E A R   S C A L I N G
 ===========================
  

 Cut-off radii density fit:                        0.1000000000E-07
 Overlap cut-off criterion AO matrix elements:     0.1000000000E-05
 Cut-offs for Coulomb potential and fitted density:0.1000000000E-07
 Cut-off criterion for Coulomb multipole terms:    0.1000000000E-07
 Progressive Convergence parameter:                 0.000000000    
 ***************************************************************************************************



                                            ***************************
                                            *  C O M P U T A T I O N  *
                                            ***************************
  

 Number of elements of the density matrix on this node (used, total):     40470     40470



 ===========================================
 Numerical Integration : Fuzzy Cells (Becke)
 ===========================================
  
 Becke grid quality: NORMAL         
  
 Lebedev angular grid order:             min:  11 max:  23
 Nr. of radial points:                   min:  46 max:  67

 Total nr. of points:      92276
 Nr. of blocks:              721
 Block length:               128
 Nr. of dummy points:         12


 Test of Precision of the Numerical Integration Grid
 ===================================================

 Integral of the Total Core Density:                   0.00000000000000



 ========================
 Density Fitting (zlmFit)
 ========================
  
 ZlmFit Fit Quality: NORMAL         
  
 Max L-expansion:                        min:   6 max:   7
 Nr. of radial interpolation points:     min:  39 max:  60



 =====
 S C F  ***  ScaSCF  ***
 =====
  
 Initial density matrix is calculated as sum of fragments

 CYCLE    1
 SCF Error: norm([F,P])=      0.855290495541, max([F,P])=      0.401610112693
 orbitals (Q,E):
 ---------------
 A :21...40          ( 2.00    -0.1788)  ( 2.00    -0.1747)  ( 2.00    -0.1655)  ( 2.00    -0.1337)
                     ( 2.00    -0.1259)  ( 2.00    -0.1131)  ( 2.00    -0.0856)  ( 2.00    -0.0168)
                     ( 2.00     0.0039)  ( 2.00     0.0060)  ( 0.00     0.1217)  ( 0.00     0.1250)
                     ( 0.00     0.1321)  ( 0.00     0.1581)  ( 0.00     0.1758)  ( 0.00     0.1954)
                     ( 0.00     0.2002)  ( 0.00     0.2190)  ( 0.00     0.2305)  ( 0.00     0.2539)

 CYCLE    2
   MIX coefficients:  0.8000  0.2000
 SCF Error: norm([F,P])=      0.463820682812, max([F,P])=      0.135318650229
 orbitals (Q,E):
 ---------------
 A :21...31          ( 2.00    -0.1772)  ( 2.00    -0.1712)  ( 2.00    -0.1632)  ( 2.00    -0.1151)
                     ( 2.00    -0.0893)  ( 2.00    -0.0724)  ( 2.00    -0.0628)  ( 2.00    -0.0382)
                     ( 2.00    -0.0321)  ( 2.00    -0.0302)  ( 0.00     0.1177)

 CYCLE    3
  SDIIS (wt  0.000): -0.2282  1.2282
 A-DIIS (wt  1.000):  0.0000  1.0000
  DIIS coefficients:  0.0000  1.0000
 SCF Error: norm([F,P])=      0.162443075034, max([F,P])=      0.026233759886
 orbitals (Q,E):
 ---------------
 A :21...31          ( 2.00    -0.1855)  ( 2.00    -0.1714)  ( 2.00    -0.1656)  ( 2.00    -0.1318)
                     ( 2.00    -0.0966)  ( 2.00    -0.0940)  ( 2.00    -0.0775)  ( 2.00    -0.0307)
                     ( 2.00    -0.0171)  ( 2.00    -0.0133)  ( 0.00     0.0884)

 CYCLE    4
  SDIIS (wt  0.000):  0.1163  0.6117  0.2720
 A-DIIS (wt  1.000):  0.0000  0.8129  0.1871
  DIIS coefficients:  0.0000  0.8129  0.1871
 SCF Error: norm([F,P])=      0.484810842365, max([F,P])=      0.158712858655
 orbitals (Q,E):
 ---------------
 A :21...31          ( 2.00    -0.1806)  ( 2.00    -0.1694)  ( 2.00    -0.1632)  ( 2.00    -0.1225)
                     ( 2.00    -0.0795)  ( 2.00    -0.0748)  ( 2.00    -0.0733)  ( 2.00    -0.0580)
                     ( 2.00    -0.0537)  ( 2.00    -0.0432)  ( 0.00     0.0961)

 CYCLE    5
  SDIIS (wt  0.875):  0.0251  0.4149  0.1032  0.4567
 A-DIIS (wt  0.125):  0.0000  0.2368  0.0000  0.7632
  DIIS coefficients:  0.0220  0.3928  0.0904  0.4949
 SCF Error: norm([F,P])=      0.109168022399, max([F,P])=      0.013330447854
 orbitals (Q,E):
 ---------------
 A :21...31          ( 2.00    -0.1785)  ( 2.00    -0.1688)  ( 2.00    -0.1621)  ( 2.00    -0.1172)
                     ( 2.00    -0.0756)  ( 2.00    -0.0602)  ( 2.00    -0.0585)  ( 2.00    -0.0507)
                     ( 2.00    -0.0462)  ( 2.00    -0.0397)  ( 0.00     0.1060)

 CYCLE    6
  SDIIS (wt  0.923):  0.0103  0.1924  0.0218  0.3236  0.4520
 A-DIIS (wt  0.077):  0.0000  0.0000  0.0000  0.0000  1.0000
  DIIS coefficients:  0.0095  0.1776  0.0201  0.2988  0.4939
 SCF Error: norm([F,P])=      0.047056488477, max([F,P])=      0.008577294832
 orbitals (Q,E):
 ---------------
 A :21...31          ( 2.00    -0.1794)  ( 2.00    -0.1698)  ( 2.00    -0.1632)  ( 2.00    -0.1183)
                     ( 2.00    -0.0781)  ( 2.00    -0.0627)  ( 2.00    -0.0611)  ( 2.00    -0.0555)
                     ( 2.00    -0.0506)  ( 2.00    -0.0426)  ( 0.00     0.1033)

 CYCLE    7
  SDIIS (wt  0.990): -0.0028  0.0775  0.0023  0.1237  0.2900  0.5094
 A-DIIS (wt  0.010):  0.0000  0.0000  0.0000  0.0000  0.0888  0.9112
  DIIS coefficients: -0.0028  0.0768  0.0022  0.1225  0.2881  0.5132
 SCF Error: norm([F,P])=      0.013204835870, max([F,P])=      0.001941887892
 orbitals (Q,E):
 ---------------
 A :21...31          ( 2.00    -0.1795)  ( 2.00    -0.1697)  ( 2.00    -0.1631)  ( 2.00    -0.1184)
                     ( 2.00    -0.0780)  ( 2.00    -0.0623)  ( 2.00    -0.0606)  ( 2.00    -0.0548)
                     ( 2.00    -0.0499)  ( 2.00    -0.0425)  ( 0.00     0.1037)

 CYCLE    8
  SDIIS (wt  1.000): -0.0044  0.0347 -0.0015  0.0498  0.1282  0.3118  0.4815
  DIIS coefficients: -0.0044  0.0347 -0.0015  0.0498  0.1282  0.3118  0.4815
 SCF Error: norm([F,P])=      0.003593007165, max([F,P])=      0.000504030821
 orbitals (Q,E):
 ---------------
 A :21...31          ( 2.00    -0.1793)  ( 2.00    -0.1697)  ( 2.00    -0.1631)  ( 2.00    -0.1181)
                     ( 2.00    -0.0778)  ( 2.00    -0.0621)  ( 2.00    -0.0605)  ( 2.00    -0.0547)
                     ( 2.00    -0.0498)  ( 2.00    -0.0422)  ( 0.00     0.1040)

 CYCLE    9
  SDIIS (wt  1.000): -0.0017  0.0114 -0.0007  0.0159  0.0358  0.1044  0.2214  0.6136
  DIIS coefficients: -0.0017  0.0114 -0.0007  0.0159  0.0358  0.1044  0.2214  0.6136
 SCF Error: norm([F,P])=      0.000656253826, max([F,P])=      0.000102954847
 orbitals (Q,E):
 ---------------
 A :21...31          ( 2.00    -0.1793)  ( 2.00    -0.1697)  ( 2.00    -0.1631)  ( 2.00    -0.1182)
                     ( 2.00    -0.0778)  ( 2.00    -0.0622)  ( 2.00    -0.0606)  ( 2.00    -0.0547)
                     ( 2.00    -0.0498)  ( 2.00    -0.0423)  ( 0.00     0.1039)

 CYCLE   10
  SDIIS (wt  1.000): -0.0002  0.0023 -0.0002  0.0037  0.0082  0.0255  0.0592  0.2111  0.6904
  DIIS coefficients: -0.0002  0.0023 -0.0002  0.0037  0.0082  0.0255  0.0592  0.2111  0.6904
 SCF Error: norm([F,P])=      0.000123639598, max([F,P])=      0.000031922720
 orbitals (Q,E):
 ---------------
 A :21...31          ( 2.00    -0.1793)  ( 2.00    -0.1697)  ( 2.00    -0.1631)  ( 2.00    -0.1182)
                     ( 2.00    -0.0778)  ( 2.00    -0.0622)  ( 2.00    -0.0606)  ( 2.00    -0.0547)
                     ( 2.00    -0.0498)  ( 2.00    -0.0423)  ( 0.00     0.1039)

 CYCLE   11
  SDIIS (wt  1.000): -0.0000  0.0004 -0.0000  0.0008  0.0019  0.0061  0.0157  0.0691  0.3465  0.5595
  DIIS coefficients: -0.0000  0.0004 -0.0000  0.0008  0.0019  0.0061  0.0157  0.0691  0.3465  0.5595
 SCF Error: norm([F,P])=      0.000051683951, max([F,P])=      0.000008227885
 orbitals (Q,E):
 ---------------
 A :21...31          ( 2.00    -0.1793)  ( 2.00    -0.1697)  ( 2.00    -0.1631)  ( 2.00    -0.1182)
                     ( 2.00    -0.0778)  ( 2.00    -0.0622)  ( 2.00    -0.0606)  ( 2.00    -0.0547)
                     ( 2.00    -0.0498)  ( 2.00    -0.0423)  ( 0.00     0.1039)

 CYCLE   12
  SDIIS (wt  1.000):  0.0000  0.0000  0.0000  0.0003  0.0008  0.0024  0.0155  0.1009  0.2833  0.5967
  DIIS coefficients:  0.0000  0.0000  0.0000  0.0003  0.0008  0.0024  0.0155  0.1009  0.2833  0.5967
 SCF Error: norm([F,P])=      0.000018454975, max([F,P])=      0.000003270754
 orbitals (Q,E):
 ---------------
 A :21...31          ( 2.00    -0.1793)  ( 2.00    -0.1697)  ( 2.00    -0.1631)  ( 2.00    -0.1182)
                     ( 2.00    -0.0778)  ( 2.00    -0.0622)  ( 2.00    -0.0606)  ( 2.00    -0.0547)
                     ( 2.00    -0.0498)  ( 2.00    -0.0423)  ( 0.00     0.1039)

 CYCLE   13
  SDIIS (wt  1.000):  0.0000  0.0000  0.0001  0.0002  0.0008  0.0059  0.0421  0.1236  0.2909  0.5364
  DIIS coefficients:  0.0000  0.0000  0.0001  0.0002  0.0008  0.0059  0.0421  0.1236  0.2909  0.5364
 SCF Error: norm([F,P])=      0.000002949582, max([F,P])=      0.000000765648
 orbitals (Q,E):
 ---------------
 A :21...31          ( 2.00    -0.1793)  ( 2.00    -0.1697)  ( 2.00    -0.1631)  ( 2.00    -0.1182)
                     ( 2.00    -0.0778)  ( 2.00    -0.0622)  ( 2.00    -0.0606)  ( 2.00    -0.0547)
                     ( 2.00    -0.0498)  ( 2.00    -0.0423)  ( 0.00     0.1039)

 SCF CONVERGED

 CYCLE   14
 ***************************************************************************************************



                                                *******************
                                                *  R E S U L T S  *
                                                *******************
  
 *** Using FIT density in Focky
  SDIIS (wt  1.000):  0.0000  0.0000  0.0000  0.0001  0.0008  0.0061  0.0161  0.0407  0.1707  0.7654
  DIIS coefficients:  0.0000  0.0000  0.0000  0.0001  0.0008  0.0061  0.0161  0.0407  0.1707  0.7654
 SCF Error: norm([F,P])=      0.000000672123, max([F,P])=      0.000000111226

 Scaled ZORA Orbital Energies, per Irrep and Spin:
 =================================================
                        Occup              E (au)              E (eV)       Diff (eV) with prev. cycle
                        -----      --------------------        ------       --------------------------
 A
              21        2.000     -0.17932385531844E+00        -4.880              -1.36E-06
              22        2.000     -0.16968523483596E+00        -4.617              -1.12E-06
              23        2.000     -0.16306401318077E+00        -4.437              -9.28E-07
              24        2.000     -0.11818332747720E+00        -3.216              -6.15E-07
              25        2.000     -0.77818902218284E-01        -2.118              -7.00E-07
              26        2.000     -0.62212558190366E-01        -1.693              -4.70E-07
              27        2.000     -0.60554844284976E-01        -1.648              -4.86E-07
              28        2.000     -0.54742380002273E-01        -1.490              -1.15E-06
              29        2.000     -0.49835564729777E-01        -1.356              -7.87E-07
              30        2.000     -0.42309731965660E-01        -1.151              -8.48E-07
              31        0.000      0.10393573151296E+00         2.828
              32        0.000      0.13091226668779E+00         3.562
              33        0.000      0.13662070771496E+00         3.718
              34        0.000      0.16151974523480E+00         4.395
              35        0.000      0.18338635995756E+00         4.990
              36        0.000      0.19537298648005E+00         5.316
              37        0.000      0.20198062100836E+00         5.496
              38        0.000      0.22616155963348E+00         6.154
              39        0.000      0.23116537165832E+00         6.290
              40        0.000      0.26951331771859E+00         7.334
  
 HOMO :       30 A                -0.42309731965660E-01
 LUMO :       31 A                 0.10393573151296E+00
  


 All Electron Calculation, thus no Orbital Energies of the Core Orbitals are calculated


 Fit test: (difference of exact and fit density, squared integrated, result summed over spins)
         Sum-of-Fragments:                             0.00017001967078
         Orthogonalized Fragments:                     0.00017928815928
         SCF:                                          0.00017942024007



 ==========================
 Electron Density at Nuclei
 ==========================
  
 The electron density is calculated at points on a small sphere around the center of a nucleus.
 The printed electron density is the average electron density on these points.
 The radius of the sphere is the printed approximate finite nuclear radius.
 Note: ZORA-4 density is used, which includes small component density

         Atom        Nuclear Radius (Angstrom)             Electron Density (a.u.)
         ----        -------------------------             -----------------------
     1)   Cl                0.0000426624                             3312.13033
     2)   C                 0.0000320678                              127.37515
     3)   H                 0.0000181514                                0.51547
     4)   F                 0.0000361580                              450.59908
     5)   C                 0.0000320678                              127.02082
     6)   H                 0.0000181514                                0.52142
     7)   H                 0.0000181514                                0.51542
     8)   N                 0.0000333706                              206.02095
     9)   H                 0.0000181514                                0.48173
    10)   H                 0.0000181514                                0.51067
    11)   C                 0.0000320678                              126.98799
    12)   H                 0.0000181514                                0.51240
    13)   H                 0.0000181514                                0.51408
    14)   H                 0.0000181514                                0.51474



 =======================================
 M U L L I K E N   P O P U L A T I O N S
 =======================================
  
 The survey below gives for each atom:
 a) the total charge (Z minus electrons)
 b) the net spin polarization (nr of electrons spin-A minus spin-B)
 c) for each spin the atomic electron valence density (integrated) per L-value.

 Atom              Charge    Spin density          S         P         D         F
 ----              ------    ------------       ------    ------    ------    ------
 1 Cl             -0.6026                       5.9785   11.6059    0.0142    0.0040
 2 C               0.6243                       3.1004    2.1741    0.0948    0.0064
 3 H              -0.2112                       1.1212    0.0835    0.0065    0.0000
 4 F              -0.6816                       4.0149    5.6597    0.0066    0.0004
 5 C               0.4893                       2.9354    2.5112    0.0607    0.0035
 6 H              -0.1791                       1.0838    0.0885    0.0069    0.0000
 7 H              -0.2286                       1.1409    0.0816    0.0062    0.0000
 8 N              -0.0568                       3.3583    3.6477    0.0476    0.0032
 9 H              -0.0300                       0.8825    0.1367    0.0108    0.0000
 10 H             -0.0748                       0.9471    0.1183    0.0094    0.0000
 11 C              0.6670                       2.8257    2.4625    0.0425    0.0024
 12 H             -0.1987                       1.1049    0.0875    0.0063    0.0000
 13 H             -0.2298                       1.1383    0.0854    0.0061    0.0000
 14 H             -0.2872                       1.1960    0.0852    0.0060    0.0000

 Populations of individual BAS functions
 ----------------------------------------
 1 Cl           0.5878  1.3676  1.7512  0.2144  0.7370  0.7404  0.7404  1.2574  1.2528  1.2528
                0.6329  0.9923  0.4322  0.2685  0.3158  0.3156  0.9252  1.0179  1.0184  0.4894
                0.6390  0.6354  0.0152  0.0027  0.0033 -0.0028  0.0003 -0.0045  0.0143  0.0069
                0.0066 -0.0051  0.0002 -0.0073 -0.0042 -0.0008 -0.0020 -0.0048
 2 C            0.5066  1.4832  0.2106  0.9415 -0.0415 -0.0413 -0.2145 -0.2134  0.5272  0.8407
                0.7801  0.1037  0.2015  0.1901 -0.0016  0.0136  0.0134  0.0269  0.0211  0.0214
               -0.0020 -0.0034 -0.0020  0.0020  0.0007  0.0017  0.0046  0.0027  0.0004  0.0018
 5 C            0.5076  1.4813  0.0853  0.9004 -0.0392 -0.1298 -0.1010 -0.1730  0.8063  0.7474
                0.7958  0.1996  0.1797  0.1861  0.0022  0.0077  0.0124  0.0159  0.0123  0.0102
               -0.0014 -0.0024 -0.0015  0.0011  0.0002  0.0011  0.0041  0.0010 -0.0005  0.0018
 11 C           0.5070  1.4820 -0.0344  0.9118 -0.0406 -0.1468 -0.2074 -0.0822  0.7799  0.7920
                0.7421  0.2025  0.1921  0.1904  0.0036  0.0031  0.0113  0.0070  0.0071  0.0103
               -0.0002 -0.0009 -0.0011 -0.0007  0.0002  0.0014  0.0008 -0.0008  0.0010  0.0028
 3 H            0.2478  0.5465  0.3269  0.0380  0.0221  0.0233  0.0116  0.0018  0.0019 -0.0048
                0.0005 -0.0045
 6 H            0.2588  0.4902  0.3347  0.0314  0.0237  0.0334 -0.0063  0.0005  0.0013 -0.0004
                0.0017  0.0099
 7 H            0.2767  0.5400  0.3242  0.0335  0.0223  0.0258  0.0022  0.0011  0.0012 -0.0021
                0.0010  0.0027
 9 H            0.0713  0.4827  0.3285  0.0494  0.0335  0.0538  0.0149  0.0029  0.0033 -0.0055
                0.0005 -0.0053
 10 H           0.0610  0.5558  0.3303  0.0349  0.0409  0.0424 -0.0051  0.0029  0.0003  0.0145
                0.0031 -0.0062
 12 H           0.2314  0.5386  0.3349  0.0335  0.0317  0.0223  0.0041  0.0011  0.0013 -0.0025
                0.0010  0.0013
 13 H           0.2312  0.5811  0.3260  0.0350  0.0276  0.0228  0.0109  0.0017  0.0016 -0.0052
                0.0004 -0.0034
 14 H           0.3020  0.5784  0.3156  0.0267  0.0343  0.0242 -0.0064  0.0021  0.0001  0.0142
                0.0020 -0.0060
[...]
                                   10.24%    32 A               3.665  0.00     2 fB
                                    7.49%    30 A               2.472  0.00     2 fB
                                    5.02%    23 A              -0.414  0.00     2 fB
                                    4.60%    31 A               3.245  0.00     2 fB
                                    4.57%    20 A              -6.434  2.00     2 fB
                                    4.46%    26 A               0.991  0.00     2 fB
                                    4.17%    33 A               4.154  0.00     2 fB
                                    4.02%    15 A              -9.272  2.00     2 fB
                                    2.78%    36 A               4.922  0.00     2 fB
                                    2.77%    25 A               0.452  0.00     2 fB
                                    1.75%    17 A              20.220  0.00     1 fA
                                    1.43%    18 A              -7.895  2.00     2 fB
                                    1.43%     9 A               0.928  2.00     1 fA
                                    1.24%    44 A               8.937  0.00     2 fB
                                    1.08%    50 A              11.919  0.00     2 fB
      -0.05798         6 A         21.44%    15 A              -9.272  2.00     2 fB
                                   10.93%    28 A               1.656  0.00     2 fB
                                    6.90%    13 A             -11.394  2.00     2 fB
                                    6.53%    18 A              -7.895  2.00     2 fB
                                    5.63%    29 A               2.393  0.00     2 fB
                                    5.43%    16 A              -8.967  2.00     2 fB
                                    5.24%    27 A               1.520  0.00     2 fB
                                    3.41%    17 A              -8.792  2.00     2 fB
                                    3.27%    11 A              13.303  0.00     1 fA
                                    3.14%    37 A               5.471  0.00     2 fB
                                    2.97%    14 A              20.220  0.00     1 fA
                                    2.08%    16 A              20.220  0.00     1 fA
                                    1.83%    31 A               3.245  0.00     2 fB
                                    1.76%    14 A             -10.919  2.00     2 fB
                                    1.65%    39 A               6.706  0.00     2 fB
                                    1.53%    21 A              -6.288  2.00     2 fB
                                    1.39%    34 A               4.454  0.00     2 fB
                                    1.38%    13 A              13.303  0.00     1 fA
                                    1.37%    32 A               3.665  0.00     2 fB
                                    1.32%    19 A              -6.979  2.00     2 fB
                                   -1.26%    10 A              12.862  0.00     1 fA
                                    1.25%    35 A               4.661  0.00     2 fB
                                    1.17%    18 A              20.220  0.00     1 fA
                                    1.14%    12 A             -12.484  2.00     2 fB
                                    1.11%     9 A             -16.606  2.00     2 fB
       0.05798       247 A         17.91%    15 A              -9.272  2.00     2 fB
                                   11.03%    28 A               1.656  0.00     2 fB
                                    8.64%    18 A              -7.895  2.00     2 fB
                                    5.85%    29 A               2.393  0.00     2 fB
                                    5.55%    27 A               1.520  0.00     2 fB
                                    4.69%    13 A             -11.394  2.00     2 fB
                                    4.33%    14 A              20.220  0.00     1 fA
                                    4.16%    16 A              -8.967  2.00     2 fB
                                    3.94%    17 A              -8.792  2.00     2 fB
                                    3.89%    37 A               5.471  0.00     2 fB
                                    2.65%    16 A              20.220  0.00     1 fA
                                    2.13%    11 A              13.303  0.00     1 fA
                                    2.01%     9 A               0.928  2.00     1 fA
                                    2.00%    19 A              -6.979  2.00     2 fB
                                    1.92%    31 A               3.245  0.00     2 fB
                                    1.81%    18 A              20.220  0.00     1 fA
                                    1.58%    14 A             -10.919  2.00     2 fB
                                    1.55%    34 A               4.454  0.00     2 fB
                                    1.48%    35 A               4.661  0.00     2 fB
                                    1.36%    39 A               6.706  0.00     2 fB
                                    1.33%    32 A               3.665  0.00     2 fB
                                    1.15%    21 A              -6.288  2.00     2 fB
      -0.05456         7 A         17.66%    15 A              -9.272  2.00     2 fB
                                   14.99%    24 A               0.036  0.00     2 fB
                                    7.70%    14 A             -10.919  2.00     2 fB
                                    6.94%    13 A             -11.394  2.00     2 fB
                                    6.38%    11 A              13.303  0.00     1 fA
                                    4.64%    16 A              -8.967  2.00     2 fB
                                    4.58%    32 A               3.665  0.00     2 fB
                                    4.04%    26 A               0.991  0.00     2 fB
                                    3.74%    19 A              -6.979  2.00     2 fB
                                    3.15%    18 A              -7.895  2.00     2 fB
                                    2.76%     7 A               0.928  2.00     1 fA
                                    2.57%    20 A              -6.434  2.00     2 fB
                                    2.33%    14 A              20.220  0.00     1 fA
                                    2.09%    33 A               4.154  0.00     2 fB
                                    1.81%    36 A               4.922  0.00     2 fB
                                    1.58%    16 A              20.220  0.00     1 fA
                                    1.48%    25 A               0.452  0.00     2 fB
                                    1.47%    12 A             -12.484  2.00     2 fB
       0.05456       246 A         18.06%    15 A              -9.272  2.00     2 fB
                                   13.81%    24 A               0.036  0.00     2 fB
                                    7.22%    13 A             -11.394  2.00     2 fB
                                    6.43%    14 A             -10.919  2.00     2 fB
                                    5.22%    32 A               3.665  0.00     2 fB
                                    4.93%    26 A               0.991  0.00     2 fB
                                    4.81%    11 A              13.303  0.00     1 fA
                                    3.70%    18 A              -7.895  2.00     2 fB
                                    3.64%    16 A              -8.967  2.00     2 fB
                                    3.21%    14 A              20.220  0.00     1 fA
                                    3.17%    19 A              -6.979  2.00     2 fB
                                    2.39%    20 A              -6.434  2.00     2 fB
                                    2.37%    33 A               4.154  0.00     2 fB
                                    1.98%    16 A              20.220  0.00     1 fA
                                    1.87%    36 A               4.922  0.00     2 fB
                                    1.54%    25 A               0.452  0.00     2 fB
                                    1.54%    28 A               1.656  0.00     2 fB
                                    1.19%    23 A              -0.414  0.00     2 fB
                                    1.17%     7 A               0.928  2.00     1 fA
                                    1.07%    43 A               8.711  0.00     2 fB
                                    1.00%     9 A               0.928  2.00     1 fA
      -0.05234         8 A         17.30%    30 A               2.472  0.00     2 fB
                                   12.53%    21 A              -6.288  2.00     2 fB
                                   12.39%    17 A              -8.792  2.00     2 fB
                                   10.28%    12 A             -12.484  2.00     2 fB
                                    9.21%    19 A              -6.979  2.00     2 fB
                                    5.35%    29 A               2.393  0.00     2 fB
                                    4.62%    25 A               0.452  0.00     2 fB
                                    2.76%    13 A              13.303  0.00     1 fA
                                    2.55%    31 A               3.245  0.00     2 fB
                                    2.41%    23 A              -0.414  0.00     2 fB
                                    1.54%    14 A              20.220  0.00     1 fA
                                    1.49%    28 A               1.656  0.00     2 fB
                                    1.47%    10 A             -14.973  2.00     2 fB
                                    1.43%    20 A              -6.434  2.00     2 fB
                                    1.40%    37 A               5.471  0.00     2 fB
       0.05234       245 A         19.78%    30 A               2.472  0.00     2 fB
                                   11.79%    17 A              -8.792  2.00     2 fB
                                   11.19%    21 A              -6.288  2.00     2 fB
                                   10.25%    12 A             -12.484  2.00     2 fB
                                    9.23%    19 A              -6.979  2.00     2 fB
                                    5.54%    29 A               2.393  0.00     2 fB
                                    4.46%    25 A               0.452  0.00     2 fB
                                    2.20%    31 A               3.245  0.00     2 fB
                                    2.19%    37 A               5.471  0.00     2 fB
                                    2.14%    14 A              20.220  0.00     1 fA
                                    2.09%    23 A              -0.414  0.00     2 fB
                                    1.82%    28 A               1.656  0.00     2 fB
                                    1.37%    20 A              -6.434  2.00     2 fB
                                    1.25%    13 A              13.303  0.00     1 fA
                                    1.16%    10 A             -14.973  2.00     2 fB
                                    1.15%    12 A              13.303  0.00     1 fA
 Mulliken charges used for AMS results%charges...


    =====================
     CALCULATION RESULTS
    =====================

Energy (hartree)            -0.04871646


--------------
Atomic charges
--------------
  Index   Atom    Charge
      1     Cl   -0.6026
      2      C    0.6243
      3      H   -0.2112
      4      F   -0.6816
      5      C    0.4893
      6      H   -0.1791
      7      H   -0.2286
      8      N   -0.0568
      9      H   -0.0300
     10      H   -0.0748
     11      C    0.6670
     12      H   -0.1987
     13      H   -0.2298
     14      H   -0.2872


Dipole moment vector    (Debye):    -0.22500156   -0.24006860   -0.05697063
              magnitude (Debye):     0.33392258


-----------------------
Molecular orbitals info
-----------------------
n orbitals:              252
n spin:                    1

Note: only printing virtual orbitals with
      energy smaller than HOMO + 100. eV

HOMO (eV):              -1.1513
LUMO (eV):               2.8282
HOMO-LUMO gap (eV):      3.9795

   Index   Energy (eV)    Occupation
     170       98.8071         0.000       
     169       98.6638         0.000       
     168       98.1480         0.000       
     167       98.0415         0.000       
     166       96.9053         0.000       
     165       93.9524         0.000       
     164       92.4420         0.000       
     163       91.0630         0.000       
     162       90.3527         0.000       
     161       89.4001         0.000       
     160       89.3144         0.000       
     159       88.4403         0.000       
     158       87.2230         0.000       
     157       86.7632         0.000       
     156       85.9253         0.000       
     155       85.4895         0.000       
     154       84.7314         0.000       
     153       83.6092         0.000       
     152       83.2300         0.000       
     151       82.4825         0.000       
     150       81.5770         0.000       
     149       81.3104         0.000       
     148       80.1936         0.000       
     147       79.7377         0.000       
     146       79.1756         0.000       
     145       77.0220         0.000       
     144       75.3715         0.000       
     143       73.9366         0.000       
     142       72.8517         0.000       
     141       71.8695         0.000       
     140       71.1164         0.000       
     139       70.6597         0.000       
     138       69.2181         0.000       
     137       68.2129         0.000       
     136       67.5474         0.000       
     135       66.9881         0.000       
     134       66.4833         0.000       
     133       64.8683         0.000       
     132       64.7396         0.000       
     131       63.4568         0.000       
     130       62.1898         0.000       
     129       60.7696         0.000       
     128       59.5824         0.000       
     127       59.4009         0.000       
     126       58.0977         0.000       
     125       57.3401         0.000       
     124       56.3595         0.000       
     123       55.8152         0.000       
     122       54.8175         0.000       
     121       54.3152         0.000       
     120       53.1799         0.000       
     119       52.1460         0.000       
     118       50.8908         0.000       
     117       50.4793         0.000       
     116       50.0638         0.000       
     115       48.1415         0.000       
     114       46.9832         0.000       
     113       46.6352         0.000       
     112       46.4552         0.000       
     111       45.3241         0.000       
     110       44.5228         0.000       
     109       44.0935         0.000       
     108       42.6838         0.000       
     107       42.5254         0.000       
     106       42.1543         0.000       
     105       41.4278         0.000       
     104       40.6678         0.000       
     103       40.4562         0.000       
     102       40.0190         0.000       
     101       39.9406         0.000       
     100       39.6948         0.000       
      99       39.3253         0.000       
      98       39.1781         0.000       
      97       38.3352         0.000       
      96       38.1408         0.000       
      95       38.0140         0.000       
      94       37.3766         0.000       
      93       36.9345         0.000       
      92       36.5164         0.000       
      91       35.5066         0.000       
      90       34.6965         0.000       
      89       34.1564         0.000       
      88       33.9205         0.000       
      87       33.1622         0.000       
      86       32.0903         0.000       
      85       31.6666         0.000       
      84       31.2018         0.000       
      83       30.3280         0.000       
      82       29.4262         0.000       
      81       29.1203         0.000       
      80       28.2399         0.000       
      79       26.5868         0.000       
      78       26.5559         0.000       
      77       25.9394         0.000       
      76       25.2057         0.000       
      75       24.7287         0.000       
      74       22.9189         0.000       
      73       22.3611         0.000       
      72       21.3498         0.000       
      71       20.3816         0.000       
      70       19.5626         0.000       
      69       19.3501         0.000       
      68       18.2908         0.000       
      67       17.8348         0.000       
      66       17.3835         0.000       
      65       16.8576         0.000       
      64       16.6262         0.000       
      63       16.3708         0.000       
      62       16.2295         0.000       
      61       15.4657         0.000       
      60       14.9347         0.000       
      59       14.9067         0.000       
      58       14.5849         0.000       
      57       14.4060         0.000       
      56       13.9146         0.000       
      55       13.5118         0.000       
      54       13.2739         0.000       
      53       12.9983         0.000       
      52       12.6109         0.000       
      51       12.2267         0.000       
      50       11.7044         0.000       
      49       11.4445         0.000       
      48       10.8466         0.000       
      47       10.2883         0.000       
      46        9.6734         0.000       
      45        9.1146         0.000       
      44        8.9782         0.000       
      43        8.5872         0.000       
      42        8.2286         0.000       
      41        7.6121         0.000       
      40        7.3338         0.000       
      39        6.2903         0.000       
      38        6.1542         0.000       
      37        5.4962         0.000       
      36        5.3164         0.000       
      35        4.9902         0.000       
      34        4.3952         0.000       
      33        3.7176         0.000       
      32        3.5623         0.000       
      31        2.8282         0.000 < LUMO
      30       -1.1513         2.000 < HOMO
      29       -1.3561         2.000       
      28       -1.4896         2.000       
      27       -1.6478         2.000       
      26       -1.6929         2.000       
      25       -2.1176         2.000       
      24       -3.2159         2.000       
      23       -4.4372         2.000       
      22       -4.6174         2.000       
      21       -4.8797         2.000       
      20       -6.2399         2.000       
      19       -6.8657         2.000       
      18       -7.4617         2.000       
      17       -8.2689         2.000       
      16      -10.0098         2.000       
      15      -11.9617         2.000       
      14      -13.6613         2.000       
      13      -15.1153         2.000       
      12      -18.3749         2.000       
      11      -20.2347         2.000       
      10     -183.7196         2.000       
       9     -183.7230         2.000       
       8     -183.8353         2.000       
       7     -244.7078         2.000       
       6     -265.6324         2.000       
       5     -265.7431         2.000       
       4     -267.9174         2.000       
       3     -377.1390         2.000       
       2     -652.8358         2.000       
       1    -2743.9692         2.000       

AMS application finished. Exiting.
NORMAL TERMINATION
     Total cpu time:      68.14
  Total system time:       0.32
 Total elapsed time:      68.65
NORMAL TERMINATION
