srun: Job 662085 step creation temporarily disabled, retrying (Requested nodes are busy)
srun: Job 662085 step creation still disabled, retrying (Requested nodes are busy)
srun: Job 662085 step creation still disabled, retrying (Requested nodes are busy)
srun: Job 662085 step creation still disabled, retrying (Requested nodes are busy)
srun: Job 662085 step creation still disabled, retrying (Requested nodes are busy)
srun: Job 662085 step creation still disabled, retrying (Requested nodes are busy)
srun: Job 662085 step creation still disabled, retrying (Requested nodes are busy)
srun: Job 662085 step creation still disabled, retrying (Requested nodes are busy)
srun: Job 662085 step creation still disabled, retrying (Requested nodes are busy)
srun: Job 662085 step creation still disabled, retrying (Requested nodes are busy)
srun: Job 662085 step creation still disabled, retrying (Requested nodes are busy)
srun: Job 662085 step creation still disabled, retrying (Requested nodes are busy)
srun: Job 662085 step creation still disabled, retrying (Requested nodes are busy)
srun: Job 662085 step creation still disabled, retrying (Requested nodes are busy)
srun: Job 662085 step creation still disabled, retrying (Requested nodes are busy)
srun: Step created for StepId=662085.17

 *******************************************************************************
 *                                                                             *
 *  --------------------------------                                           *
 *   Amsterdam Modeling Suite (AMS)              2026.103                      *
 *  --------------------------------                                           *
 *                                               r260501 2026-05-01 873454b5   *
 *                                                                             *
 *                                                                             *
 *                              =================                              *
 *                              |               |                              *
 *                              |     A M S     |                              *
 *                              |               |                              *
 *                              =================                              *
 *                                                                             *
 *                                                                             *
 *   Online information and documentation:  https://www.scm.com/support/       *
 *   E-mail:  support@scm.com   info@scm.com                                   *
 *                                                                             *
 *   Scientific publications using AMS results must be properly referenced     *
 *   See the User Manuals (or the web site) for recommended citations          *
 *   The terms and conditions of the End User License Agreement apply to       *
 *   the use of AMS, https://www.scm.com/license-terms/                        *
 *                                                                             *
 **********************  x86_64_linux_intel / intelmpi  ************************
 
 Licensed to: Jong-June Jeon / University of Seoul 2026-06-02 13:44:15
 SCM User ID: u30731
  
 AMS 2026.103  RunTime: Jun03-2026 00:02:21  ShM Nodes: 1  Procs: 1

 AMS jobname: c1_fragA_ts
 AMS jobid  : 2016665932

 Start   directory: /gpfs/home1/yeseo1ee/projects/eda-asm-prediction/ADF_800/adf_outputs/batch_000/dipolar_000877/
 Results directory: /gpfs/home1/yeseo1ee/projects/eda-asm-prediction/ADF_800/adf_outputs/batch_000/dipolar_000877/c1_fragA_ts.results/
 Scratch directory: /tmp/amstmp_c1_fragA_ts_kid0.2016665932/

 RNG seed: 721974443 456132214 -1609147776 165740822 411814407 -1890984362 -1686476456 -1221223257



                      ************************************************************************
                      *  ADF 2026.103  RunTime: Jun03-2026 00:02:21  ShM Nodes: 1  Procs: 1  *
                      ************************************************************************
  

       ****************************
       * SINGLE POINT CALCULATION *
       ****************************

--------
Geometry
--------
Formula: C10H13N
Atoms
  Index Symbol   x (angstrom)   y (angstrom)   z (angstrom)
      1      C     1.91736000     1.53215000    -0.69309000
      2      C     2.69707000     0.40571000    -0.25387000
      3      C     3.27245000    -0.44637000    -1.23266000
      4      C     3.98392000    -1.58806000    -0.87533000
      5      C     4.15819000    -1.92888000     0.47378000
      6      C     3.60397000    -1.09752000     1.45470000
      7      C     2.88713000     0.04681000     1.10577000
      8      N     1.37021000     2.42424000     0.16827000
      9      C     0.45652000     3.36094000    -0.11877000
     10      C    -0.09158000     4.16543000     1.01629000
     11      C     0.40603000     3.92683000    -1.50182000
     12      H     1.95435000     1.81878000    -1.74048000
     13      H     3.14048000    -0.19668000    -2.28902000
     14      H     4.40960000    -2.22229000    -1.65776000
     15      H     4.71659000    -2.82469000     0.75423000
     16      H     3.73085000    -1.34380000     2.51246000
     17      H     2.47015000     0.66204000     1.90621000
     18      H     1.37364000     2.14164000     1.14677000
     19      H     0.42072000     5.14264000     1.10912000
     20      H    -1.15986000     4.38127000     0.85551000
     21      H     0.01332000     3.63572000     1.97559000
     22      H    -0.47098000     4.57971000    -1.61252000
     23      H     1.30823000     4.53702000    -1.70593000
     24      H     0.35619000     3.14942000    -2.27809000

Total System Charge              0.00000


----------------
ADF Engine Input
----------------
 
   Basis
     Type TZ2P
     Core None
   End
   XC
     GGA BLYP
     Dispersion GRIMME3 BJDAMP
   End
   Symmetry NOSYM
   NumericalQuality Normal
   Unrestricted No
   SCF
     Iterations 200
     Converge 1.0e-6
   End
   Save TAPE21
 

 Title: *** (NO TITLE) ***

 *** adf ***



 ===========================
 A T T A C H E D   F I L E S
 ===========================
  



 ===============================
 M O D E L   P A R A M E T E R S
 ===============================
  
 DENSITY FUNCTIONAL POTENTIAL (scf)
    LDA:                               Exchange only                           == Not Default ==
    Gradient Corrections:              Becke88 LYP                             == Not Default ==

 SPIN  (restricted / unrestr.)
    Molecule:                          Restricted                               
    Fragments:                         Restricted                               

 OTHER ASPECTS
    Relativistic Corrections:          scalar (ZORA,MAPA)                       

    Nuclear Charge Density Model:      Point Charge Nuclei                      
    Core Treatment:                    Frozen Orbital(s)                        

    Hyperfine or Zeeman Interaction:   ---                                      

 Settings for Grimme D3 dispersion correction

      damping                        BJ
      s6                          1.000
      s8                          2.700
      a1                          0.430
      a2                          4.236

 Other (technical) parameters

      alpha                      14.000
      version                         4
 


 Fragment File(s)
 ----------------
 C:
         file : /gpfs/home1/yeseo1ee/projects/eda-asm-prediction/ADF_800/adf_outputs/batch_000/dipolar_000877/c1_fragA_ts.results/t21.50BA88D5.C
         jobid: 0
         title: Carbon (TZ2P)
 N:
         file : /gpfs/home1/yeseo1ee/projects/eda-asm-prediction/ADF_800/adf_outputs/batch_000/dipolar_000877/c1_fragA_ts.results/t21.44EAA48D.N
         jobid: 0
         title: Nitrogen (TZ2P)
 H:
         file : /gpfs/home1/yeseo1ee/projects/eda-asm-prediction/ADF_800/adf_outputs/batch_000/dipolar_000877/c1_fragA_ts.results/t21.6F35CCAB.H
         jobid: 0
         title: Hydrogen (TZ2P)



 ===============
 G E O M E T R Y  ***  3D  Molecule  ***
 ===============
  

 ATOMS
 =====                            X Y Z                    CHARGE
                                (Angstrom)             Nucl     +Core       At.Mass
                       --------------------------    ----------------       -------
    1  C               1.9174    1.5321   -0.6931      6.00      6.00       12.0000
    2  C               2.6971    0.4057   -0.2539      6.00      6.00       12.0000
    3  C               3.2725   -0.4464   -1.2327      6.00      6.00       12.0000
    4  C               3.9839   -1.5881   -0.8753      6.00      6.00       12.0000
    5  C               4.1582   -1.9289    0.4738      6.00      6.00       12.0000
    6  C               3.6040   -1.0975    1.4547      6.00      6.00       12.0000
    7  C               2.8871    0.0468    1.1058      6.00      6.00       12.0000
    8  N               1.3702    2.4242    0.1683      7.00      7.00       14.0031
    9  C               0.4565    3.3609   -0.1188      6.00      6.00       12.0000
   10  C              -0.0916    4.1654    1.0163      6.00      6.00       12.0000
   11  C               0.4060    3.9268   -1.5018      6.00      6.00       12.0000
   12  H               1.9544    1.8188   -1.7405      1.00      1.00        1.0078
   13  H               3.1405   -0.1967   -2.2890      1.00      1.00        1.0078
   14  H               4.4096   -2.2223   -1.6578      1.00      1.00        1.0078
   15  H               4.7166   -2.8247    0.7542      1.00      1.00        1.0078
   16  H               3.7309   -1.3438    2.5125      1.00      1.00        1.0078
   17  H               2.4701    0.6620    1.9062      1.00      1.00        1.0078
   18  H               1.3736    2.1416    1.1468      1.00      1.00        1.0078
   19  H               0.4207    5.1426    1.1091      1.00      1.00        1.0078
   20  H              -1.1599    4.3813    0.8555      1.00      1.00        1.0078
   21  H               0.0133    3.6357    1.9756      1.00      1.00        1.0078
   22  H              -0.4710    4.5797   -1.6125      1.00      1.00        1.0078
   23  H               1.3082    4.5370   -1.7059      1.00      1.00        1.0078
   24  H               0.3562    3.1494   -2.2781      1.00      1.00        1.0078


 FRAGMENTS
 =========                                     Atoms in this Fragment     Cart. coord.s (Angstrom)
                                               -------------------------------------------------------
    1  C                                                 1  C            1.9174    1.5321   -0.6931
    2  C                                                 2  C            2.6971    0.4057   -0.2539
    3  C                                                 3  C            3.2725   -0.4464   -1.2327
    4  C                                                 4  C            3.9839   -1.5881   -0.8753
    5  C                                                 5  C            4.1582   -1.9289    0.4738
    6  C                                                 6  C            3.6040   -1.0975    1.4547
    7  C                                                 7  C            2.8871    0.0468    1.1058
    8  C                                                 9  C            0.4565    3.3609   -0.1188
    9  C                                                10  C           -0.0916    4.1654    1.0163
   10  C                                                11  C            0.4060    3.9268   -1.5018
   11  N                                                 8  N            1.3702    2.4242    0.1683
   12  H                                                12  H            1.9544    1.8188   -1.7405
   13  H                                                13  H            3.1405   -0.1967   -2.2890
   14  H                                                14  H            4.4096   -2.2223   -1.6578
   15  H                                                15  H            4.7166   -2.8247    0.7542
   16  H                                                16  H            3.7309   -1.3438    2.5125
   17  H                                                17  H            2.4701    0.6620    1.9062
   18  H                                                18  H            1.3736    2.1416    1.1468
   19  H                                                19  H            0.4207    5.1426    1.1091
   20  H                                                20  H           -1.1599    4.3813    0.8555
   21  H                                                21  H            0.0133    3.6357    1.9756
   22  H                                                22  H           -0.4710    4.5797   -1.6125
   23  H                                                23  H            1.3082    4.5370   -1.7059
   24  H                                                24  H            0.3562    3.1494   -2.2781



 =====================================
 S Y M M E T R Y ,   E L E C T R O N S
 =====================================
  
 Symmetry: NOSYM

 Irreducible Representations, including subspecies
 -------------------------------------------------
 A


 Configuration of Valence Electrons
 ==================================
 ( determined in the SCF procedure )

 Total:   80

 Net Charge: 0 (Nuclei minus Electrons)

 Aufbau principle for MO occupations will be applied through SCF cycle no.     100
 Thereafter, the program will assign electrons to MOs that are spatially
 similar to the occupied MOs in a "reference" cycle ("KeepOrbitals").
 The reference cycle is always the PREVIOUS cycle: it will evolve with
 the SCF procedure.
 ***************************************************************************************************



                                      ****************************************
                                      *  B U I L D : (Fragments, Functions)  *
                                      ****************************************
  



 =======
 S F O s  ***  (Symmetrized Fragment Orbitals)  ***
 =======
  
 SFOs are linear combinations of (valence) Fragment Orbitals (FOs), such that the SFOs transform as the
 irreducible representations of the (molecular) symmetry group. Each SFO is therefore characterized by
 an irrep of the molecule and by a few (or only one) generating FOs.
 The SFOs constitute a symmetry-adapted basis for the Fock matrix. The MO eigenvector coefficients in
 this basis provide a direct interpretation of the MOs in terms of Frontier Orbital Theory.

 The SFOs are combined with auxiliary Core Functions (CFs) to ensure orthogonalization on the (frozen)
 Core Orbitals (COs). The Core-orthogonalized SFOs (CSFOs) constitute the true Fock basis.

 The FOs, and hence also the (C)SFOs are combinations of the elementary basis functions (BAS). The basis
 functions that participate in the description of the SFOs depend on the irrep. The indices of the
 involved functions are printed below for each irrep.
 (The complete list of primitive basis functions is printed in another section)

 Total nr. of (C)SFOs (summation over all irreps) :   429

 NOTE: a (C)SFO that is defined as a combination of more than one FO is usually NOT normalized.



                                       === A ===
 Nr. of SFOs :  429
 Cartesian basis functions that participate in this irrep (total number =   486) :
      1     2     3     4     5     6     9    12     7    10
     13     8    11    14    15    16    17    18    19    20
     21    22    23    24    25    26    27    28    29    30
     31    32    33    34    35    36    39    42    37    40
     43    38    41    44    45    46    47    48    49    50
     51    52    53    54    55    56    57    58    59    60
     61    62    63    64    65    66    69    72    67    70
     73    68    71    74    75    76    77    78    79    80
     81    82    83    84    85    86    87    88    89    90
     91    92    93    94    95    96    99   102    97   100
    103    98   101   104   105   106   107   108   109   110
    111   112   113   114   115   116   117   118   119   120
    121   122   123   124   125   126   129   132   127   130
    133   128   131   134   135   136   137   138   139   140
    141   142   143   144   145   146   147   148   149   150
    151   152   153   154   155   156   159   162   157   160
    163   158   161   164   165   166   167   168   169   170
    171   172   173   174   175   176   177   178   179   180
    181   182   183   184   185   186   189   192   187   190
    193   188   191   194   195   196   197   198   199   200
    201   202   203   204   205   206   207   208   209   210
    211   212   213   214   215   216   219   222   217   220
    223   218   221   224   225   226   227   228   229   230
    231   232   233   234   235   236   237   238   239   240
    241   242   243   244   245   246   249   252   247   250
    253   248   251   254   255   256   257   258   259   260
    261   262   263   264   265   266   267   268   269   270
    271   272   273   274   275   276   279   282   277   280
    283   278   281   284   285   286   287   288   289   290
    291   292   293   294   295   296   297   298   299   300
    301   302   303   304   305   306   309   312   307   310
    313   308   311   314   315   316   317   318   319   320
    321   322   323   324   325   326   327   328   329   330
    331   332   333   334   335   336   337   338   339   340
    341   342   343   344   345   346   347   348   349   350
    351   352   353   354   355   356   357   358   359   360
    361   362   363   364   365   366   367   368   369   370
    371   372   373   374   375   376   377   378   379   380
    381   382   383   384   385   386   387   388   389   390
    391   392   393   394   395   396   397   398   399   400
    401   402   403   404   405   406   407   408   409   410
    411   412   413   414   415   416   417   418   419   420
    421   422   423   424   425   426   427   428   429   430
    431   432   433   434   435   436   437   438   439   440
    441   442   443   444   445   446   447   448   449   450
    451   452   453   454   455   456   457   458   459   460
    461   462   463   464   465   466   467   468   469   470
    471   472   473   474   475   476   477   478   479   480
    481   482   483   484   485   486

    SFO  (index         Fragment          Generating    Expansion in Fragment Orbitals
  indx  incl.CFs)   Occup   Orb.Energy   FragmentType  Coeff.   Orbital     on Fragment
 --------------------------------------------------------------------------------------
     1       1      2.000     -10.066 au  C             1.00      1 S               1
                        (    -273.921 eV)
     2       2      2.000      -0.501 au  C             1.00      2 S               1
                        (     -13.620 eV)
     3       3       --         0.373 au  C             1.00      3 S               1
                        (      10.158 eV)
     4       4       --         5.405 au  C             1.00      4 S               1
                        (     147.073 eV)
     5       5       --        49.848 au  C             1.00      5 S               1
                        (    1356.422 eV)
     6       6      0.667      -0.193 au  C             1.00      1 P:x             1
                        (      -5.239 eV)
     7       7       --         0.169 au  C             1.00      2 P:x             1
                        (       4.589 eV)
     8       8       --         2.013 au  C             1.00      3 P:x             1
                        (      54.789 eV)
     9       9      0.667      -0.193 au  C             1.00      1 P:y             1
                        (      -5.239 eV)
    10      10       --         0.169 au  C             1.00      2 P:y             1
                        (       4.589 eV)
    11      11       --         2.013 au  C             1.00      3 P:y             1
                        (      54.789 eV)
    12      12      0.667      -0.193 au  C             1.00      1 P:z             1
                        (      -5.239 eV)
    13      13       --         0.169 au  C             1.00      2 P:z             1
                        (       4.589 eV)
    14      14       --         2.013 au  C             1.00      3 P:z             1
                        (      54.789 eV)
    15      15       --         1.243 au  C             1.00      1 D:z2            1
                        (      33.824 eV)
    16      16       --         1.243 au  C             1.00      1 D:x2-y2         1
                        (      33.824 eV)
    17      17       --         1.243 au  C             1.00      1 D:xy            1
                        (      33.824 eV)
    18      18       --         1.243 au  C             1.00      1 D:xz            1
                        (      33.824 eV)
    19      19       --         1.243 au  C             1.00      1 D:yz            1
                        (      33.824 eV)
    20      20       --         4.016 au  C             1.00      1 F:z3            1
                        (     109.271 eV)
    21      21       --         4.016 au  C             1.00      1 F:z             1
                        (     109.271 eV)
    22      22       --         4.016 au  C             1.00      1 F:xyz           1
                        (     109.271 eV)
    23      23       --         4.016 au  C             1.00      1 F:z2x           1
                        (     109.271 eV)
    24      24       --         4.016 au  C             1.00      1 F:z2y           1
                        (     109.271 eV)
    25      25       --         4.016 au  C             1.00      1 F:x             1
                        (     109.271 eV)
    26      26       --         4.016 au  C             1.00      1 F:y             1
                        (     109.271 eV)
    27      27      2.000     -10.066 au  C             1.00      1 S               2
                        (    -273.921 eV)
    28      28      2.000      -0.501 au  C             1.00      2 S               2
                        (     -13.620 eV)
    29      29       --         0.373 au  C             1.00      3 S               2
                        (      10.158 eV)
    30      30       --         5.405 au  C             1.00      4 S               2
                        (     147.073 eV)
    31      31       --        49.848 au  C             1.00      5 S               2
                        (    1356.422 eV)
    32      32      0.667      -0.193 au  C             1.00      1 P:x             2
                        (      -5.239 eV)
    33      33       --         0.169 au  C             1.00      2 P:x             2
                        (       4.589 eV)
    34      34       --         2.013 au  C             1.00      3 P:x             2
                        (      54.789 eV)
    35      35      0.667      -0.193 au  C             1.00      1 P:y             2
                        (      -5.239 eV)
    36      36       --         0.169 au  C             1.00      2 P:y             2
                        (       4.589 eV)
    37      37       --         2.013 au  C             1.00      3 P:y             2
                        (      54.789 eV)
    38      38      0.667      -0.193 au  C             1.00      1 P:z             2
                        (      -5.239 eV)
    39      39       --         0.169 au  C             1.00      2 P:z             2
                        (       4.589 eV)
    40      40       --         2.013 au  C             1.00      3 P:z             2
                        (      54.789 eV)
    41      41       --         1.243 au  C             1.00      1 D:z2            2
                        (      33.824 eV)
    42      42       --         1.243 au  C             1.00      1 D:x2-y2         2
                        (      33.824 eV)
    43      43       --         1.243 au  C             1.00      1 D:xy            2
                        (      33.824 eV)
    44      44       --         1.243 au  C             1.00      1 D:xz            2
                        (      33.824 eV)
    45      45       --         1.243 au  C             1.00      1 D:yz            2
                        (      33.824 eV)
    46      46       --         4.016 au  C             1.00      1 F:z3            2
                        (     109.271 eV)
    47      47       --         4.016 au  C             1.00      1 F:z             2
                        (     109.271 eV)
    48      48       --         4.016 au  C             1.00      1 F:xyz           2
                        (     109.271 eV)
    49      49       --         4.016 au  C             1.00      1 F:z2x           2
                        (     109.271 eV)
    50      50       --         4.016 au  C             1.00      1 F:z2y           2
                        (     109.271 eV)
    51      51       --         4.016 au  C             1.00      1 F:x             2
                        (     109.271 eV)
    52      52       --         4.016 au  C             1.00      1 F:y             2
                        (     109.271 eV)
    53      53      2.000     -10.066 au  C             1.00      1 S               3
                        (    -273.921 eV)
    54      54      2.000      -0.501 au  C             1.00      2 S               3
                        (     -13.620 eV)
    55      55       --         0.373 au  C             1.00      3 S               3
                        (      10.158 eV)
    56      56       --         5.405 au  C             1.00      4 S               3
                        (     147.073 eV)
    57      57       --        49.848 au  C             1.00      5 S               3
                        (    1356.422 eV)
    58      58      0.667      -0.193 au  C             1.00      1 P:x             3
                        (      -5.239 eV)
    59      59       --         0.169 au  C             1.00      2 P:x             3
                        (       4.589 eV)
    60      60       --         2.013 au  C             1.00      3 P:x             3
                        (      54.789 eV)
    61      61      0.667      -0.193 au  C             1.00      1 P:y             3
                        (      -5.239 eV)
    62      62       --         0.169 au  C             1.00      2 P:y             3
                        (       4.589 eV)
    63      63       --         2.013 au  C             1.00      3 P:y             3
                        (      54.789 eV)
    64      64      0.667      -0.193 au  C             1.00      1 P:z             3
                        (      -5.239 eV)
    65      65       --         0.169 au  C             1.00      2 P:z             3
                        (       4.589 eV)
    66      66       --         2.013 au  C             1.00      3 P:z             3
                        (      54.789 eV)
    67      67       --         1.243 au  C             1.00      1 D:z2            3
                        (      33.824 eV)
    68      68       --         1.243 au  C             1.00      1 D:x2-y2         3
                        (      33.824 eV)
    69      69       --         1.243 au  C             1.00      1 D:xy            3
                        (      33.824 eV)
    70      70       --         1.243 au  C             1.00      1 D:xz            3
                        (      33.824 eV)
    71      71       --         1.243 au  C             1.00      1 D:yz            3
                        (      33.824 eV)
    72      72       --         4.016 au  C             1.00      1 F:z3            3
                        (     109.271 eV)
    73      73       --         4.016 au  C             1.00      1 F:z             3
                        (     109.271 eV)
    74      74       --         4.016 au  C             1.00      1 F:xyz           3
                        (     109.271 eV)
    75      75       --         4.016 au  C             1.00      1 F:z2x           3
                        (     109.271 eV)
    76      76       --         4.016 au  C             1.00      1 F:z2y           3
                        (     109.271 eV)
    77      77       --         4.016 au  C             1.00      1 F:x             3
                        (     109.271 eV)
    78      78       --         4.016 au  C             1.00      1 F:y             3
                        (     109.271 eV)
    79      79      2.000     -10.066 au  C             1.00      1 S               4
                        (    -273.921 eV)
    80      80      2.000      -0.501 au  C             1.00      2 S               4
                        (     -13.620 eV)
    81      81       --         0.373 au  C             1.00      3 S               4
                        (      10.158 eV)
    82      82       --         5.405 au  C             1.00      4 S               4
                        (     147.073 eV)
    83      83       --        49.848 au  C             1.00      5 S               4
                        (    1356.422 eV)
    84      84      0.667      -0.193 au  C             1.00      1 P:x             4
                        (      -5.239 eV)
    85      85       --         0.169 au  C             1.00      2 P:x             4
                        (       4.589 eV)
    86      86       --         2.013 au  C             1.00      3 P:x             4
                        (      54.789 eV)
    87      87      0.667      -0.193 au  C             1.00      1 P:y             4
                        (      -5.239 eV)
    88      88       --         0.169 au  C             1.00      2 P:y             4
                        (       4.589 eV)
    89      89       --         2.013 au  C             1.00      3 P:y             4
                        (      54.789 eV)
    90      90      0.667      -0.193 au  C             1.00      1 P:z             4
                        (      -5.239 eV)
    91      91       --         0.169 au  C             1.00      2 P:z             4
                        (       4.589 eV)
    92      92       --         2.013 au  C             1.00      3 P:z             4
                        (      54.789 eV)
    93      93       --         1.243 au  C             1.00      1 D:z2            4
                        (      33.824 eV)
    94      94       --         1.243 au  C             1.00      1 D:x2-y2         4
                        (      33.824 eV)
    95      95       --         1.243 au  C             1.00      1 D:xy            4
                        (      33.824 eV)
    96      96       --         1.243 au  C             1.00      1 D:xz            4
                        (      33.824 eV)
    97      97       --         1.243 au  C             1.00      1 D:yz            4
                        (      33.824 eV)
    98      98       --         4.016 au  C             1.00      1 F:z3            4
                        (     109.271 eV)
    99      99       --         4.016 au  C             1.00      1 F:z             4
                        (     109.271 eV)
   100     100       --         4.016 au  C             1.00      1 F:xyz           4
                        (     109.271 eV)
   101     101       --         4.016 au  C             1.00      1 F:z2x           4
                        (     109.271 eV)
   102     102       --         4.016 au  C             1.00      1 F:z2y           4
                        (     109.271 eV)
   103     103       --         4.016 au  C             1.00      1 F:x             4
                        (     109.271 eV)
   104     104       --         4.016 au  C             1.00      1 F:y             4
                        (     109.271 eV)
   105     105      2.000     -10.066 au  C             1.00      1 S               5
                        (    -273.921 eV)
   106     106      2.000      -0.501 au  C             1.00      2 S               5
                        (     -13.620 eV)
   107     107       --         0.373 au  C             1.00      3 S               5
                        (      10.158 eV)
   108     108       --         5.405 au  C             1.00      4 S               5
                        (     147.073 eV)
   109     109       --        49.848 au  C             1.00      5 S               5
                        (    1356.422 eV)
   110     110      0.667      -0.193 au  C             1.00      1 P:x             5
                        (      -5.239 eV)
   111     111       --         0.169 au  C             1.00      2 P:x             5
                        (       4.589 eV)
   112     112       --         2.013 au  C             1.00      3 P:x             5
                        (      54.789 eV)
   113     113      0.667      -0.193 au  C             1.00      1 P:y             5
                        (      -5.239 eV)
   114     114       --         0.169 au  C             1.00      2 P:y             5
                        (       4.589 eV)
   115     115       --         2.013 au  C             1.00      3 P:y             5
                        (      54.789 eV)
   116     116      0.667      -0.193 au  C             1.00      1 P:z             5
                        (      -5.239 eV)
   117     117       --         0.169 au  C             1.00      2 P:z             5
                        (       4.589 eV)
   118     118       --         2.013 au  C             1.00      3 P:z             5
                        (      54.789 eV)
   119     119       --         1.243 au  C             1.00      1 D:z2            5
                        (      33.824 eV)
   120     120       --         1.243 au  C             1.00      1 D:x2-y2         5
                        (      33.824 eV)
   121     121       --         1.243 au  C             1.00      1 D:xy            5
                        (      33.824 eV)
   122     122       --         1.243 au  C             1.00      1 D:xz            5
                        (      33.824 eV)
   123     123       --         1.243 au  C             1.00      1 D:yz            5
                        (      33.824 eV)
   124     124       --         4.016 au  C             1.00      1 F:z3            5
                        (     109.271 eV)
   125     125       --         4.016 au  C             1.00      1 F:z             5
                        (     109.271 eV)
   126     126       --         4.016 au  C             1.00      1 F:xyz           5
                        (     109.271 eV)
   127     127       --         4.016 au  C             1.00      1 F:z2x           5
                        (     109.271 eV)
   128     128       --         4.016 au  C             1.00      1 F:z2y           5
                        (     109.271 eV)
   129     129       --         4.016 au  C             1.00      1 F:x             5
                        (     109.271 eV)
   130     130       --         4.016 au  C             1.00      1 F:y             5
                        (     109.271 eV)
   131     131      2.000     -10.066 au  C             1.00      1 S               6
                        (    -273.921 eV)
   132     132      2.000      -0.501 au  C             1.00      2 S               6
                        (     -13.620 eV)
   133     133       --         0.373 au  C             1.00      3 S               6
                        (      10.158 eV)
   134     134       --         5.405 au  C             1.00      4 S               6
                        (     147.073 eV)
   135     135       --        49.848 au  C             1.00      5 S               6
                        (    1356.422 eV)
   136     136      0.667      -0.193 au  C             1.00      1 P:x             6
                        (      -5.239 eV)
   137     137       --         0.169 au  C             1.00      2 P:x             6
                        (       4.589 eV)
   138     138       --         2.013 au  C             1.00      3 P:x             6
                        (      54.789 eV)
   139     139      0.667      -0.193 au  C             1.00      1 P:y             6
                        (      -5.239 eV)
   140     140       --         0.169 au  C             1.00      2 P:y             6
                        (       4.589 eV)
   141     141       --         2.013 au  C             1.00      3 P:y             6
                        (      54.789 eV)
   142     142      0.667      -0.193 au  C             1.00      1 P:z             6
                        (      -5.239 eV)
   143     143       --         0.169 au  C             1.00      2 P:z             6
                        (       4.589 eV)
   144     144       --         2.013 au  C             1.00      3 P:z             6
                        (      54.789 eV)
   145     145       --         1.243 au  C             1.00      1 D:z2            6
                        (      33.824 eV)
   146     146       --         1.243 au  C             1.00      1 D:x2-y2         6
                        (      33.824 eV)
   147     147       --         1.243 au  C             1.00      1 D:xy            6
                        (      33.824 eV)
   148     148       --         1.243 au  C             1.00      1 D:xz            6
                        (      33.824 eV)
   149     149       --         1.243 au  C             1.00      1 D:yz            6
                        (      33.824 eV)
   150     150       --         4.016 au  C             1.00      1 F:z3            6
                        (     109.271 eV)
   151     151       --         4.016 au  C             1.00      1 F:z             6
                        (     109.271 eV)
   152     152       --         4.016 au  C             1.00      1 F:xyz           6
                        (     109.271 eV)
   153     153       --         4.016 au  C             1.00      1 F:z2x           6
                        (     109.271 eV)
   154     154       --         4.016 au  C             1.00      1 F:z2y           6
                        (     109.271 eV)
   155     155       --         4.016 au  C             1.00      1 F:x             6
                        (     109.271 eV)
   156     156       --         4.016 au  C             1.00      1 F:y             6
                        (     109.271 eV)
   157     157      2.000     -10.066 au  C             1.00      1 S               7
                        (    -273.921 eV)
   158     158      2.000      -0.501 au  C             1.00      2 S               7
                        (     -13.620 eV)
   159     159       --         0.373 au  C             1.00      3 S               7
                        (      10.158 eV)
   160     160       --         5.405 au  C             1.00      4 S               7
                        (     147.073 eV)
   161     161       --        49.848 au  C             1.00      5 S               7
                        (    1356.422 eV)
   162     162      0.667      -0.193 au  C             1.00      1 P:x             7
                        (      -5.239 eV)
   163     163       --         0.169 au  C             1.00      2 P:x             7
                        (       4.589 eV)
   164     164       --         2.013 au  C             1.00      3 P:x             7
                        (      54.789 eV)
   165     165      0.667      -0.193 au  C             1.00      1 P:y             7
                        (      -5.239 eV)
   166     166       --         0.169 au  C             1.00      2 P:y             7
                        (       4.589 eV)
   167     167       --         2.013 au  C             1.00      3 P:y             7
                        (      54.789 eV)
   168     168      0.667      -0.193 au  C             1.00      1 P:z             7
                        (      -5.239 eV)
   169     169       --         0.169 au  C             1.00      2 P:z             7
                        (       4.589 eV)
   170     170       --         2.013 au  C             1.00      3 P:z             7
                        (      54.789 eV)
   171     171       --         1.243 au  C             1.00      1 D:z2            7
                        (      33.824 eV)
   172     172       --         1.243 au  C             1.00      1 D:x2-y2         7
                        (      33.824 eV)
   173     173       --         1.243 au  C             1.00      1 D:xy            7
                        (      33.824 eV)
   174     174       --         1.243 au  C             1.00      1 D:xz            7
                        (      33.824 eV)
   175     175       --         1.243 au  C             1.00      1 D:yz            7
                        (      33.824 eV)
   176     176       --         4.016 au  C             1.00      1 F:z3            7
                        (     109.271 eV)
   177     177       --         4.016 au  C             1.00      1 F:z             7
                        (     109.271 eV)
   178     178       --         4.016 au  C             1.00      1 F:xyz           7
                        (     109.271 eV)
   179     179       --         4.016 au  C             1.00      1 F:z2x           7
                        (     109.271 eV)
   180     180       --         4.016 au  C             1.00      1 F:z2y           7
                        (     109.271 eV)
   181     181       --         4.016 au  C             1.00      1 F:x             7
                        (     109.271 eV)
   182     182       --         4.016 au  C             1.00      1 F:y             7
                        (     109.271 eV)
   183     183      2.000     -10.066 au  C             1.00      1 S               8
                        (    -273.921 eV)
   184     184      2.000      -0.501 au  C             1.00      2 S               8
                        (     -13.620 eV)
   185     185       --         0.373 au  C             1.00      3 S               8
                        (      10.158 eV)
   186     186       --         5.405 au  C             1.00      4 S               8
                        (     147.073 eV)
   187     187       --        49.848 au  C             1.00      5 S               8
                        (    1356.422 eV)
   188     188      0.667      -0.193 au  C             1.00      1 P:x             8
                        (      -5.239 eV)
   189     189       --         0.169 au  C             1.00      2 P:x             8
                        (       4.589 eV)
   190     190       --         2.013 au  C             1.00      3 P:x             8
                        (      54.789 eV)
   191     191      0.667      -0.193 au  C             1.00      1 P:y             8
                        (      -5.239 eV)
   192     192       --         0.169 au  C             1.00      2 P:y             8
                        (       4.589 eV)
   193     193       --         2.013 au  C             1.00      3 P:y             8
                        (      54.789 eV)
   194     194      0.667      -0.193 au  C             1.00      1 P:z             8
                        (      -5.239 eV)
   195     195       --         0.169 au  C             1.00      2 P:z             8
                        (       4.589 eV)
   196     196       --         2.013 au  C             1.00      3 P:z             8
                        (      54.789 eV)
   197     197       --         1.243 au  C             1.00      1 D:z2            8
                        (      33.824 eV)
   198     198       --         1.243 au  C             1.00      1 D:x2-y2         8
                        (      33.824 eV)
   199     199       --         1.243 au  C             1.00      1 D:xy            8
                        (      33.824 eV)
   200     200       --         1.243 au  C             1.00      1 D:xz            8
                        (      33.824 eV)
   201     201       --         1.243 au  C             1.00      1 D:yz            8
                        (      33.824 eV)
   202     202       --         4.016 au  C             1.00      1 F:z3            8
                        (     109.271 eV)
   203     203       --         4.016 au  C             1.00      1 F:z             8
                        (     109.271 eV)
   204     204       --         4.016 au  C             1.00      1 F:xyz           8
                        (     109.271 eV)
   205     205       --         4.016 au  C             1.00      1 F:z2x           8
                        (     109.271 eV)
   206     206       --         4.016 au  C             1.00      1 F:z2y           8
                        (     109.271 eV)
   207     207       --         4.016 au  C             1.00      1 F:x             8
                        (     109.271 eV)
   208     208       --         4.016 au  C             1.00      1 F:y             8
                        (     109.271 eV)
   209     209      2.000     -10.066 au  C             1.00      1 S               9
                        (    -273.921 eV)
   210     210      2.000      -0.501 au  C             1.00      2 S               9
                        (     -13.620 eV)
   211     211       --         0.373 au  C             1.00      3 S               9
                        (      10.158 eV)
   212     212       --         5.405 au  C             1.00      4 S               9
                        (     147.073 eV)
   213     213       --        49.848 au  C             1.00      5 S               9
                        (    1356.422 eV)
   214     214      0.667      -0.193 au  C             1.00      1 P:x             9
                        (      -5.239 eV)
   215     215       --         0.169 au  C             1.00      2 P:x             9
                        (       4.589 eV)
   216     216       --         2.013 au  C             1.00      3 P:x             9
                        (      54.789 eV)
   217     217      0.667      -0.193 au  C             1.00      1 P:y             9
                        (      -5.239 eV)
   218     218       --         0.169 au  C             1.00      2 P:y             9
                        (       4.589 eV)
   219     219       --         2.013 au  C             1.00      3 P:y             9
                        (      54.789 eV)
   220     220      0.667      -0.193 au  C             1.00      1 P:z             9
                        (      -5.239 eV)
   221     221       --         0.169 au  C             1.00      2 P:z             9
                        (       4.589 eV)
   222     222       --         2.013 au  C             1.00      3 P:z             9
                        (      54.789 eV)
   223     223       --         1.243 au  C             1.00      1 D:z2            9
                        (      33.824 eV)
   224     224       --         1.243 au  C             1.00      1 D:x2-y2         9
                        (      33.824 eV)
   225     225       --         1.243 au  C             1.00      1 D:xy            9
                        (      33.824 eV)
   226     226       --         1.243 au  C             1.00      1 D:xz            9
                        (      33.824 eV)
   227     227       --         1.243 au  C             1.00      1 D:yz            9
                        (      33.824 eV)
   228     228       --         4.016 au  C             1.00      1 F:z3            9
                        (     109.271 eV)
   229     229       --         4.016 au  C             1.00      1 F:z             9
                        (     109.271 eV)
   230     230       --         4.016 au  C             1.00      1 F:xyz           9
                        (     109.271 eV)
   231     231       --         4.016 au  C             1.00      1 F:z2x           9
                        (     109.271 eV)
   232     232       --         4.016 au  C             1.00      1 F:z2y           9
                        (     109.271 eV)
   233     233       --         4.016 au  C             1.00      1 F:x             9
                        (     109.271 eV)
   234     234       --         4.016 au  C             1.00      1 F:y             9
                        (     109.271 eV)
   235     235      2.000     -10.066 au  C             1.00      1 S              10
                        (    -273.921 eV)
   236     236      2.000      -0.501 au  C             1.00      2 S              10
                        (     -13.620 eV)
   237     237       --         0.373 au  C             1.00      3 S              10
                        (      10.158 eV)
   238     238       --         5.405 au  C             1.00      4 S              10
                        (     147.073 eV)
   239     239       --        49.848 au  C             1.00      5 S              10
                        (    1356.422 eV)
   240     240      0.667      -0.193 au  C             1.00      1 P:x            10
                        (      -5.239 eV)
   241     241       --         0.169 au  C             1.00      2 P:x            10
                        (       4.589 eV)
   242     242       --         2.013 au  C             1.00      3 P:x            10
                        (      54.789 eV)
   243     243      0.667      -0.193 au  C             1.00      1 P:y            10
                        (      -5.239 eV)
   244     244       --         0.169 au  C             1.00      2 P:y            10
                        (       4.589 eV)
   245     245       --         2.013 au  C             1.00      3 P:y            10
                        (      54.789 eV)
   246     246      0.667      -0.193 au  C             1.00      1 P:z            10
                        (      -5.239 eV)
   247     247       --         0.169 au  C             1.00      2 P:z            10
                        (       4.589 eV)
   248     248       --         2.013 au  C             1.00      3 P:z            10
                        (      54.789 eV)
   249     249       --         1.243 au  C             1.00      1 D:z2           10
                        (      33.824 eV)
   250     250       --         1.243 au  C             1.00      1 D:x2-y2        10
                        (      33.824 eV)
   251     251       --         1.243 au  C             1.00      1 D:xy           10
                        (      33.824 eV)
   252     252       --         1.243 au  C             1.00      1 D:xz           10
                        (      33.824 eV)
   253     253       --         1.243 au  C             1.00      1 D:yz           10
                        (      33.824 eV)
   254     254       --         4.016 au  C             1.00      1 F:z3           10
                        (     109.271 eV)
   255     255       --         4.016 au  C             1.00      1 F:z            10
                        (     109.271 eV)
   256     256       --         4.016 au  C             1.00      1 F:xyz          10
                        (     109.271 eV)
   257     257       --         4.016 au  C             1.00      1 F:z2x          10
                        (     109.271 eV)
   258     258       --         4.016 au  C             1.00      1 F:z2y          10
                        (     109.271 eV)
   259     259       --         4.016 au  C             1.00      1 F:x            10
                        (     109.271 eV)
   260     260       --         4.016 au  C             1.00      1 F:y            10
                        (     109.271 eV)
   261     261      2.000     -14.160 au  N             1.00      1 S              11
                        (    -385.319 eV)
   262     262      2.000      -0.678 au  N             1.00      2 S              11
                        (     -18.450 eV)
   263     263       --         0.517 au  N             1.00      3 S              11
                        (      14.073 eV)
   264     264       --         6.872 au  N             1.00      4 S              11
                        (     186.990 eV)
   265     265       --        63.432 au  N             1.00      5 S              11
                        (    1726.082 eV)
   266     266      1.000      -0.260 au  N             1.00      1 P:x            11
                        (      -7.062 eV)
   267     267       --         0.281 au  N             1.00      2 P:x            11
                        (       7.649 eV)
   268     268       --         3.275 au  N             1.00      3 P:x            11
                        (      89.105 eV)
   269     269      1.000      -0.260 au  N             1.00      1 P:y            11
                        (      -7.062 eV)
   270     270       --         0.281 au  N             1.00      2 P:y            11
                        (       7.649 eV)
   271     271       --         3.275 au  N             1.00      3 P:y            11
                        (      89.105 eV)
   272     272      1.000      -0.260 au  N             1.00      1 P:z            11
                        (      -7.062 eV)
   273     273       --         0.281 au  N             1.00      2 P:z            11
                        (       7.649 eV)
   274     274       --         3.275 au  N             1.00      3 P:z            11
                        (      89.105 eV)
   275     275       --         1.250 au  N             1.00      1 D:z2           11
                        (      34.005 eV)
   276     276       --         1.250 au  N             1.00      1 D:x2-y2        11
                        (      34.005 eV)
   277     277       --         1.250 au  N             1.00      1 D:xy           11
                        (      34.005 eV)
   278     278       --         1.250 au  N             1.00      1 D:xz           11
                        (      34.005 eV)
   279     279       --         1.250 au  N             1.00      1 D:yz           11
                        (      34.005 eV)
   280     280       --         4.013 au  N             1.00      1 F:z3           11
                        (     109.190 eV)
   281     281       --         4.013 au  N             1.00      1 F:z            11
                        (     109.190 eV)
   282     282       --         4.013 au  N             1.00      1 F:xyz          11
                        (     109.190 eV)
   283     283       --         4.013 au  N             1.00      1 F:z2x          11
                        (     109.190 eV)
   284     284       --         4.013 au  N             1.00      1 F:z2y          11
                        (     109.190 eV)
   285     285       --         4.013 au  N             1.00      1 F:x            11
                        (     109.190 eV)
   286     286       --         4.013 au  N             1.00      1 F:y            11
                        (     109.190 eV)
   287     287      1.000      -0.240 au  H             1.00      1 S              12
                        (      -6.532 eV)
   288     288       --         0.088 au  H             1.00      2 S              12
                        (       2.394 eV)
   289     289       --         1.502 au  H             1.00      3 S              12
                        (      40.869 eV)
   290     290       --         0.406 au  H             1.00      1 P:x            12
                        (      11.051 eV)
   291     291       --         0.406 au  H             1.00      1 P:y            12
                        (      11.051 eV)
   292     292       --         0.406 au  H             1.00      1 P:z            12
                        (      11.051 eV)
   293     293       --         2.569 au  H             1.00      1 D:z2           12
                        (      69.917 eV)
   294     294       --         2.569 au  H             1.00      1 D:x2-y2        12
                        (      69.917 eV)
   295     295       --         2.569 au  H             1.00      1 D:xy           12
                        (      69.917 eV)
   296     296       --         2.569 au  H             1.00      1 D:xz           12
                        (      69.917 eV)
   297     297       --         2.569 au  H             1.00      1 D:yz           12
                        (      69.917 eV)
   298     298      1.000      -0.240 au  H             1.00      1 S              13
                        (      -6.532 eV)
   299     299       --         0.088 au  H             1.00      2 S              13
                        (       2.394 eV)
   300     300       --         1.502 au  H             1.00      3 S              13
                        (      40.869 eV)
   301     301       --         0.406 au  H             1.00      1 P:x            13
                        (      11.051 eV)
   302     302       --         0.406 au  H             1.00      1 P:y            13
                        (      11.051 eV)
   303     303       --         0.406 au  H             1.00      1 P:z            13
                        (      11.051 eV)
   304     304       --         2.569 au  H             1.00      1 D:z2           13
                        (      69.917 eV)
   305     305       --         2.569 au  H             1.00      1 D:x2-y2        13
                        (      69.917 eV)
   306     306       --         2.569 au  H             1.00      1 D:xy           13
                        (      69.917 eV)
   307     307       --         2.569 au  H             1.00      1 D:xz           13
                        (      69.917 eV)
   308     308       --         2.569 au  H             1.00      1 D:yz           13
                        (      69.917 eV)
   309     309      1.000      -0.240 au  H             1.00      1 S              14
                        (      -6.532 eV)
   310     310       --         0.088 au  H             1.00      2 S              14
                        (       2.394 eV)
   311     311       --         1.502 au  H             1.00      3 S              14
                        (      40.869 eV)
   312     312       --         0.406 au  H             1.00      1 P:x            14
                        (      11.051 eV)
   313     313       --         0.406 au  H             1.00      1 P:y            14
                        (      11.051 eV)
   314     314       --         0.406 au  H             1.00      1 P:z            14
                        (      11.051 eV)
   315     315       --         2.569 au  H             1.00      1 D:z2           14
                        (      69.917 eV)
   316     316       --         2.569 au  H             1.00      1 D:x2-y2        14
                        (      69.917 eV)
   317     317       --         2.569 au  H             1.00      1 D:xy           14
                        (      69.917 eV)
   318     318       --         2.569 au  H             1.00      1 D:xz           14
                        (      69.917 eV)
   319     319       --         2.569 au  H             1.00      1 D:yz           14
                        (      69.917 eV)
   320     320      1.000      -0.240 au  H             1.00      1 S              15
                        (      -6.532 eV)
   321     321       --         0.088 au  H             1.00      2 S              15
                        (       2.394 eV)
   322     322       --         1.502 au  H             1.00      3 S              15
                        (      40.869 eV)
   323     323       --         0.406 au  H             1.00      1 P:x            15
                        (      11.051 eV)
   324     324       --         0.406 au  H             1.00      1 P:y            15
                        (      11.051 eV)
   325     325       --         0.406 au  H             1.00      1 P:z            15
                        (      11.051 eV)
   326     326       --         2.569 au  H             1.00      1 D:z2           15
                        (      69.917 eV)
   327     327       --         2.569 au  H             1.00      1 D:x2-y2        15
                        (      69.917 eV)
   328     328       --         2.569 au  H             1.00      1 D:xy           15
                        (      69.917 eV)
   329     329       --         2.569 au  H             1.00      1 D:xz           15
                        (      69.917 eV)
   330     330       --         2.569 au  H             1.00      1 D:yz           15
                        (      69.917 eV)
   331     331      1.000      -0.240 au  H             1.00      1 S              16
                        (      -6.532 eV)
   332     332       --         0.088 au  H             1.00      2 S              16
                        (       2.394 eV)
   333     333       --         1.502 au  H             1.00      3 S              16
                        (      40.869 eV)
   334     334       --         0.406 au  H             1.00      1 P:x            16
                        (      11.051 eV)
   335     335       --         0.406 au  H             1.00      1 P:y            16
                        (      11.051 eV)
   336     336       --         0.406 au  H             1.00      1 P:z            16
                        (      11.051 eV)
   337     337       --         2.569 au  H             1.00      1 D:z2           16
                        (      69.917 eV)
   338     338       --         2.569 au  H             1.00      1 D:x2-y2        16
                        (      69.917 eV)
   339     339       --         2.569 au  H             1.00      1 D:xy           16
                        (      69.917 eV)
   340     340       --         2.569 au  H             1.00      1 D:xz           16
                        (      69.917 eV)
   341     341       --         2.569 au  H             1.00      1 D:yz           16
                        (      69.917 eV)
   342     342      1.000      -0.240 au  H             1.00      1 S              17
                        (      -6.532 eV)
   343     343       --         0.088 au  H             1.00      2 S              17
                        (       2.394 eV)
   344     344       --         1.502 au  H             1.00      3 S              17
                        (      40.869 eV)
   345     345       --         0.406 au  H             1.00      1 P:x            17
                        (      11.051 eV)
   346     346       --         0.406 au  H             1.00      1 P:y            17
                        (      11.051 eV)
   347     347       --         0.406 au  H             1.00      1 P:z            17
                        (      11.051 eV)
   348     348       --         2.569 au  H             1.00      1 D:z2           17
                        (      69.917 eV)
   349     349       --         2.569 au  H             1.00      1 D:x2-y2        17
                        (      69.917 eV)
   350     350       --         2.569 au  H             1.00      1 D:xy           17
                        (      69.917 eV)
   351     351       --         2.569 au  H             1.00      1 D:xz           17
                        (      69.917 eV)
   352     352       --         2.569 au  H             1.00      1 D:yz           17
                        (      69.917 eV)
   353     353      1.000      -0.240 au  H             1.00      1 S              18
                        (      -6.532 eV)
   354     354       --         0.088 au  H             1.00      2 S              18
                        (       2.394 eV)
   355     355       --         1.502 au  H             1.00      3 S              18
                        (      40.869 eV)
   356     356       --         0.406 au  H             1.00      1 P:x            18
                        (      11.051 eV)
   357     357       --         0.406 au  H             1.00      1 P:y            18
                        (      11.051 eV)
   358     358       --         0.406 au  H             1.00      1 P:z            18
                        (      11.051 eV)
   359     359       --         2.569 au  H             1.00      1 D:z2           18
                        (      69.917 eV)
   360     360       --         2.569 au  H             1.00      1 D:x2-y2        18
                        (      69.917 eV)
   361     361       --         2.569 au  H             1.00      1 D:xy           18
                        (      69.917 eV)
   362     362       --         2.569 au  H             1.00      1 D:xz           18
                        (      69.917 eV)
   363     363       --         2.569 au  H             1.00      1 D:yz           18
                        (      69.917 eV)
   364     364      1.000      -0.240 au  H             1.00      1 S              19
                        (      -6.532 eV)
   365     365       --         0.088 au  H             1.00      2 S              19
                        (       2.394 eV)
   366     366       --         1.502 au  H             1.00      3 S              19
                        (      40.869 eV)
   367     367       --         0.406 au  H             1.00      1 P:x            19
                        (      11.051 eV)
   368     368       --         0.406 au  H             1.00      1 P:y            19
                        (      11.051 eV)
   369     369       --         0.406 au  H             1.00      1 P:z            19
                        (      11.051 eV)
   370     370       --         2.569 au  H             1.00      1 D:z2           19
                        (      69.917 eV)
   371     371       --         2.569 au  H             1.00      1 D:x2-y2        19
                        (      69.917 eV)
   372     372       --         2.569 au  H             1.00      1 D:xy           19
                        (      69.917 eV)
   373     373       --         2.569 au  H             1.00      1 D:xz           19
                        (      69.917 eV)
   374     374       --         2.569 au  H             1.00      1 D:yz           19
                        (      69.917 eV)
   375     375      1.000      -0.240 au  H             1.00      1 S              20
                        (      -6.532 eV)
   376     376       --         0.088 au  H             1.00      2 S              20
                        (       2.394 eV)
   377     377       --         1.502 au  H             1.00      3 S              20
                        (      40.869 eV)
   378     378       --         0.406 au  H             1.00      1 P:x            20
                        (      11.051 eV)
   379     379       --         0.406 au  H             1.00      1 P:y            20
                        (      11.051 eV)
   380     380       --         0.406 au  H             1.00      1 P:z            20
                        (      11.051 eV)
   381     381       --         2.569 au  H             1.00      1 D:z2           20
                        (      69.917 eV)
   382     382       --         2.569 au  H             1.00      1 D:x2-y2        20
                        (      69.917 eV)
   383     383       --         2.569 au  H             1.00      1 D:xy           20
                        (      69.917 eV)
   384     384       --         2.569 au  H             1.00      1 D:xz           20
                        (      69.917 eV)
   385     385       --         2.569 au  H             1.00      1 D:yz           20
                        (      69.917 eV)
   386     386      1.000      -0.240 au  H             1.00      1 S              21
                        (      -6.532 eV)
   387     387       --         0.088 au  H             1.00      2 S              21
                        (       2.394 eV)
   388     388       --         1.502 au  H             1.00      3 S              21
                        (      40.869 eV)
   389     389       --         0.406 au  H             1.00      1 P:x            21
                        (      11.051 eV)
   390     390       --         0.406 au  H             1.00      1 P:y            21
                        (      11.051 eV)
   391     391       --         0.406 au  H             1.00      1 P:z            21
                        (      11.051 eV)
   392     392       --         2.569 au  H             1.00      1 D:z2           21
                        (      69.917 eV)
   393     393       --         2.569 au  H             1.00      1 D:x2-y2        21
                        (      69.917 eV)
   394     394       --         2.569 au  H             1.00      1 D:xy           21
                        (      69.917 eV)
   395     395       --         2.569 au  H             1.00      1 D:xz           21
                        (      69.917 eV)
   396     396       --         2.569 au  H             1.00      1 D:yz           21
                        (      69.917 eV)
   397     397      1.000      -0.240 au  H             1.00      1 S              22
                        (      -6.532 eV)
   398     398       --         0.088 au  H             1.00      2 S              22
                        (       2.394 eV)
   399     399       --         1.502 au  H             1.00      3 S              22
                        (      40.869 eV)
   400     400       --         0.406 au  H             1.00      1 P:x            22
                        (      11.051 eV)
   401     401       --         0.406 au  H             1.00      1 P:y            22
                        (      11.051 eV)
   402     402       --         0.406 au  H             1.00      1 P:z            22
                        (      11.051 eV)
   403     403       --         2.569 au  H             1.00      1 D:z2           22
                        (      69.917 eV)
   404     404       --         2.569 au  H             1.00      1 D:x2-y2        22
                        (      69.917 eV)
   405     405       --         2.569 au  H             1.00      1 D:xy           22
                        (      69.917 eV)
   406     406       --         2.569 au  H             1.00      1 D:xz           22
                        (      69.917 eV)
   407     407       --         2.569 au  H             1.00      1 D:yz           22
                        (      69.917 eV)
   408     408      1.000      -0.240 au  H             1.00      1 S              23
                        (      -6.532 eV)
   409     409       --         0.088 au  H             1.00      2 S              23
                        (       2.394 eV)
   410     410       --         1.502 au  H             1.00      3 S              23
                        (      40.869 eV)
   411     411       --         0.406 au  H             1.00      1 P:x            23
                        (      11.051 eV)
   412     412       --         0.406 au  H             1.00      1 P:y            23
                        (      11.051 eV)
   413     413       --         0.406 au  H             1.00      1 P:z            23
                        (      11.051 eV)
   414     414       --         2.569 au  H             1.00      1 D:z2           23
                        (      69.917 eV)
   415     415       --         2.569 au  H             1.00      1 D:x2-y2        23
                        (      69.917 eV)
   416     416       --         2.569 au  H             1.00      1 D:xy           23
                        (      69.917 eV)
   417     417       --         2.569 au  H             1.00      1 D:xz           23
                        (      69.917 eV)
   418     418       --         2.569 au  H             1.00      1 D:yz           23
                        (      69.917 eV)
   419     419      1.000      -0.240 au  H             1.00      1 S              24
                        (      -6.532 eV)
   420     420       --         0.088 au  H             1.00      2 S              24
                        (       2.394 eV)
   421     421       --         1.502 au  H             1.00      3 S              24
                        (      40.869 eV)
   422     422       --         0.406 au  H             1.00      1 P:x            24
                        (      11.051 eV)
   423     423       --         0.406 au  H             1.00      1 P:y            24
                        (      11.051 eV)
   424     424       --         0.406 au  H             1.00      1 P:z            24
                        (      11.051 eV)
   425     425       --         2.569 au  H             1.00      1 D:z2           24
                        (      69.917 eV)
   426     426       --         2.569 au  H             1.00      1 D:x2-y2        24
                        (      69.917 eV)
   427     427       --         2.569 au  H             1.00      1 D:xy           24
                        (      69.917 eV)
   428     428       --         2.569 au  H             1.00      1 D:xz           24
                        (      69.917 eV)
   429     429       --         2.569 au  H             1.00      1 D:yz           24
                        (      69.917 eV)



 ================================
 (Slater-type)  F U N C T I O N S  ***  (Basis and Fit)  ***
 ================================
  

 Atom Type    1  (C)
 ==============

 Valence Basis Sets:  10
 -----------------------
   1 S    7.680000
   1 S    5.000000
   2 S    1.280000
   2 S    2.100000
   2 S    4.600000
   2 P    0.820000
   2 P    1.480000
   2 P    2.940000
   3 D    2.200000
   4 F    3.300000

 Atom Type    2  (N)
 ==============

 Valence Basis Sets:  10
 -----------------------
   1 S    8.740000
   1 S    5.900000
   2 S    5.150000
   2 S    2.500000
   2 S    1.500000
   2 P    3.680000
   2 P    1.880000
   2 P    1.000000
   3 D    2.200000
   4 F    3.300000

 Atom Type    3  (H)
 ==============

 Valence Basis Sets:   5
 -----------------------
   1 S    0.690000
   1 S    0.920000
   1 S    1.580000
   2 P    1.250000
   3 D    2.500000


 BAS: List of all Elementary Cartesian Basis Functions
 =====================================================

 The numbering in the list below (to the right of the function characteristics) is referred
 to in print-outs of MO eigenvectors and Mulliken populations in the BAS representation
 (as contrasted to the SFO representation).

 Notes:
 1. The functions are characterized by a polynomial prefactor (powers of x,y,z and r) and
    an exponential decay factor alpha.
 2. Since the basis sets are specific for an atom TYPE, the individual functions occur on
    all atoms of that type.
 3. The word 'Core' in the left margin signals that it is a Core Function (CF) : not a
    degree of freedom in the valence set, but only used to ensure orthogonalization of
    the other valence basis functions on the frozen Core Orbitals.


 (power of) X  Y  Z  R     Alpha  on Atom
            ==========     =====     ==========

 C                                    1    2    3    4    5    6    7    8    9   10
                                  ---------------------------------------------------------------------------
            0  0  0  0     7.680      1   31   61   91  121  151  181  211  241  271
            0  0  0  0     5.000      2   32   62   92  122  152  182  212  242  272
            0  0  0  1     1.280      3   33   63   93  123  153  183  213  243  273
            0  0  0  1     2.100      4   34   64   94  124  154  184  214  244  274
            0  0  0  1     4.600      5   35   65   95  125  155  185  215  245  275
            1  0  0  0     0.820      6   36   66   96  126  156  186  216  246  276
            0  1  0  0     0.820      7   37   67   97  127  157  187  217  247  277
            0  0  1  0     0.820      8   38   68   98  128  158  188  218  248  278
            1  0  0  0     1.480      9   39   69   99  129  159  189  219  249  279
            0  1  0  0     1.480     10   40   70  100  130  160  190  220  250  280
            0  0  1  0     1.480     11   41   71  101  131  161  191  221  251  281
            1  0  0  0     2.940     12   42   72  102  132  162  192  222  252  282
            0  1  0  0     2.940     13   43   73  103  133  163  193  223  253  283
            0  0  1  0     2.940     14   44   74  104  134  164  194  224  254  284
            2  0  0  0     2.200     15   45   75  105  135  165  195  225  255  285
            1  1  0  0     2.200     16   46   76  106  136  166  196  226  256  286
            1  0  1  0     2.200     17   47   77  107  137  167  197  227  257  287
            0  2  0  0     2.200     18   48   78  108  138  168  198  228  258  288
            0  1  1  0     2.200     19   49   79  109  139  169  199  229  259  289
            0  0  2  0     2.200     20   50   80  110  140  170  200  230  260  290
            3  0  0  0     3.300     21   51   81  111  141  171  201  231  261  291
            2  1  0  0     3.300     22   52   82  112  142  172  202  232  262  292
            2  0  1  0     3.300     23   53   83  113  143  173  203  233  263  293
            1  2  0  0     3.300     24   54   84  114  144  174  204  234  264  294
            1  1  1  0     3.300     25   55   85  115  145  175  205  235  265  295
            1  0  2  0     3.300     26   56   86  116  146  176  206  236  266  296
            0  3  0  0     3.300     27   57   87  117  147  177  207  237  267  297
            0  2  1  0     3.300     28   58   88  118  148  178  208  238  268  298
            0  1  2  0     3.300     29   59   89  119  149  179  209  239  269  299
            0  0  3  0     3.300     30   60   90  120  150  180  210  240  270  300

 N                                   11
                                  ---------------------------------------------------------------------------
            0  0  0  0     8.740    301
            0  0  0  0     5.900    302
            0  0  0  1     5.150    303
            0  0  0  1     2.500    304
            0  0  0  1     1.500    305
            1  0  0  0     3.680    306
            0  1  0  0     3.680    307
            0  0  1  0     3.680    308
            1  0  0  0     1.880    309
            0  1  0  0     1.880    310
            0  0  1  0     1.880    311
            1  0  0  0     1.000    312
            0  1  0  0     1.000    313
            0  0  1  0     1.000    314
            2  0  0  0     2.200    315
            1  1  0  0     2.200    316
            1  0  1  0     2.200    317
            0  2  0  0     2.200    318
            0  1  1  0     2.200    319
            0  0  2  0     2.200    320
            3  0  0  0     3.300    321
            2  1  0  0     3.300    322
            2  0  1  0     3.300    323
            1  2  0  0     3.300    324
            1  1  1  0     3.300    325
            1  0  2  0     3.300    326
            0  3  0  0     3.300    327
            0  2  1  0     3.300    328
            0  1  2  0     3.300    329
            0  0  3  0     3.300    330

 H                                   12   13   14   15   16   17   18   19   20   21   22   23   24
                                  ---------------------------------------------------------------------------
            0  0  0  0     0.690    331  343  355  367  379  391  403  415  427  439  451  463  475
[...]
                                   -8.10%     2 P:x             4.589  0.00     2 C
                                   -7.32%     2 P:z             4.589  0.00     6 C
                                   -7.28%     2 S               2.394  0.00    18 H
                                    6.53%     2 S               2.394  0.00    17 H
                                   -6.24%     2 P:z             4.589  0.00     7 C
                                    6.05%     1 P:x            -5.239  0.67     7 C
                                    5.55%     2 P:x             4.589  0.00     7 C
                                    5.32%     2 S             -13.620  2.00     8 C
                                    5.28%     2 P:z             4.589  0.00    10 C
                                    5.14%     2 P:z             4.589  0.00     9 C
                                    5.02%     2 P:x             4.589  0.00    10 C
                                    4.85%     1 S              -6.532  1.00    15 H
                                    4.55%     1 S              -6.532  1.00    24 H
                                    4.39%     1 S              -6.532  1.00    14 H
                                    4.25%     1 S              -6.532  1.00    13 H
                                    4.06%     1 P:y            -5.239  0.67     5 C
                                   -4.02%     2 P:y             4.589  0.00     6 C
                                    3.91%     2 S               2.394  0.00    15 H
                                    3.89%     1 P:x            -5.239  0.67     3 C
                                   -3.86%     3 S              10.158  0.00     8 C
                                    3.78%     2 S               2.394  0.00    12 H
                                    3.45%     1 P:z            -5.239  0.67     6 C
                                   -3.24%     2 P:y             4.589  0.00     8 C
                                   -3.23%     2 S               2.394  0.00    24 H
                                   -3.13%     2 P:y             4.589  0.00     4 C
                                   -2.99%     2 P:x             4.589  0.00     8 C
                                    2.91%     1 P:z            -5.239  0.67     9 C
                                   -2.64%     2 S               2.394  0.00    21 H
                                    2.54%     1 P:z            -5.239  0.67     1 C
                                   -2.31%     2 P:z             7.649  0.00    11 N
                                    2.21%     1 P:y            -5.239  0.67     4 C
                                    2.20%     1 S              -6.532  1.00    21 H
                                    2.16%     1 P:x            -5.239  0.67    10 C
                                   -2.14%     2 P:y             4.589  0.00     5 C
                                   -2.10%     1 P:y            -5.239  0.67     8 C
                                    2.00%     1 S              -6.532  1.00    23 H
                                   -1.98%     2 P:z             4.589  0.00     4 C
                                   -1.87%     2 S               2.394  0.00    16 H
                                   -1.82%     1 P:z            -5.239  0.67     7 C
                                    1.77%     1 P:x            -5.239  0.67     2 C
                                   -1.77%     2 P:y             7.649  0.00    11 N
                                   -1.76%     1 P:y            -5.239  0.67     2 C
                                   -1.72%     3 S              14.073  0.00    11 N
                                    1.71%     1 P:z            -7.062  1.00    11 N
                                    1.68%     2 P:y             4.589  0.00     2 C
                                   -1.67%     2 P:z             4.589  0.00     8 C
                                    1.63%     2 S             -18.450  2.00    11 N
                                    1.57%     3 S              40.869  0.00    18 H
                                   -1.54%     1 P:x            -5.239  0.67     8 C
                                   -1.48%     2 S               2.394  0.00    13 H
                                    1.45%     1 P:y            -5.239  0.67     6 C
                                   -1.40%     2 S               2.394  0.00    14 H
                                    1.32%     1 P:x            -5.239  0.67     1 C
                                    1.30%     3 S              40.869  0.00    16 H
                                   -1.13%     2 P:z             4.589  0.00     1 C
                                   -1.08%     1 P:x            -5.239  0.67     5 C
                                   -1.08%     2 S               2.394  0.00    23 H
                                   -1.01%     2 P:x             4.589  0.00     5 C



 =======================================================================
 Electrostatic potential at the Nuclei due to electrons and other nuclei
 =======================================================================
  
         Atom                  Potential
         ----                  ---------
     1)   C                  14.77738043
     2)   C                  14.78449849
     3)   C                  14.80459877
     4)   C                  14.80235519
     5)   C                  14.80824900
     6)   C                  14.79978150
     7)   C                  14.79971150
     8)   N                  18.34283396
     9)   C                  14.75496788
    10)   C                  14.77542989
    11)   C                  14.77873887
    12)   H                   1.10440996
    13)   H                   1.12131084
    14)   H                   1.12183771
    15)   H                   1.12396548
    16)   H                   1.11999772
    17)   H                   1.11036749
    18)   H                   0.99238485
    19)   H                   1.10642429
    20)   H                   1.10417919
    21)   H                   1.09819430
    22)   H                   1.10444303
    23)   H                   1.10130853
    24)   H                   1.10531375
 Mulliken charges used for AMS results%charges...


    =====================
     CALCULATION RESULTS
    =====================

Energy (hartree)            -5.11207463


--------------
Atomic charges
--------------
  Index   Atom    Charge
      1      C    0.2817
      2      C   -0.0473
      3      C    0.2362
      4      C    0.2101
      5      C    0.1837
      6      C    0.2220
      7      C    0.2089
      8      N    0.0354
      9      C    0.1171
     10      C    0.6276
     11      C    0.6305
     12      H   -0.2034
     13      H   -0.2378
     14      H   -0.2250
     15      H   -0.2211
     16      H   -0.2311
     17      H   -0.2611
     18      H   -0.0689
     19      H   -0.2038
     20      H   -0.1826
     21      H   -0.2395
     22      H   -0.2275
     23      H   -0.2059
     24      H   -0.1982


Dipole moment vector    (Debye):    -1.66193210    2.51498237    0.49848195
              magnitude (Debye):     3.05542777


-----------------------
Molecular orbitals info
-----------------------
n orbitals:              429
n spin:                    1

Note: only printing virtual orbitals with
      energy smaller than HOMO + 100. eV

HOMO (eV):              -3.5951
LUMO (eV):              -1.7907
HOMO-LUMO gap (eV):      1.8044

   Index   Energy (eV)    Occupation
     280       96.2759         0.000       
     279       95.9773         0.000       
     278       95.4759         0.000       
     277       94.9988         0.000       
     276       94.7838         0.000       
     275       94.4835         0.000       
     274       94.4154         0.000       
     273       94.0559         0.000       
     272       93.2934         0.000       
     271       92.8923         0.000       
     270       92.6525         0.000       
     269       92.2790         0.000       
     268       91.8701         0.000       
     267       91.1554         0.000       
     266       90.6889         0.000       
     265       89.8795         0.000       
     264       89.1258         0.000       
     263       88.5646         0.000       
     262       88.1185         0.000       
     261       87.4810         0.000       
     260       86.8758         0.000       
     259       86.5995         0.000       
     258       86.3375         0.000       
     257       85.9921         0.000       
     256       85.8412         0.000       
     255       84.5336         0.000       
     254       83.8003         0.000       
     253       83.5336         0.000       
     252       82.6347         0.000       
     251       82.3875         0.000       
     250       82.2063         0.000       
     249       81.7065         0.000       
     248       81.3363         0.000       
     247       80.6567         0.000       
     246       80.5912         0.000       
     245       80.3455         0.000       
     244       80.0793         0.000       
     243       79.4672         0.000       
     242       79.3145         0.000       
     241       79.1546         0.000       
     240       78.7711         0.000       
     239       77.9385         0.000       
     238       77.7796         0.000       
     237       77.2249         0.000       
     236       76.9016         0.000       
     235       76.4824         0.000       
     234       76.0640         0.000       
     233       75.5998         0.000       
     232       75.3612         0.000       
     231       74.8716         0.000       
     230       74.2732         0.000       
     229       73.9371         0.000       
     228       72.7000         0.000       
     227       72.1430         0.000       
     226       71.6897         0.000       
     225       71.4067         0.000       
     224       70.5597         0.000       
     223       69.5465         0.000       
     222       68.9514         0.000       
     221       68.8661         0.000       
     220       68.4493         0.000       
     219       66.9081         0.000       
     218       66.3466         0.000       
     217       65.3896         0.000       
     216       65.2153         0.000       
     215       64.5217         0.000       
     214       64.1264         0.000       
     213       63.5182         0.000       
     212       62.9499         0.000       
     211       62.7580         0.000       
     210       61.8056         0.000       
     209       61.7397         0.000       
     208       61.1674         0.000       
     207       61.0659         0.000       
     206       60.1127         0.000       
     205       59.6417         0.000       
     204       58.7723         0.000       
     203       58.5304         0.000       
     202       57.6968         0.000       
     201       57.0315         0.000       
     200       56.5399         0.000       
     199       55.7432         0.000       
     198       55.2050         0.000       
     197       55.0927         0.000       
     196       54.9251         0.000       
     195       54.4686         0.000       
     194       54.3796         0.000       
     193       53.8438         0.000       
     192       52.6660         0.000       
     191       52.4190         0.000       
     190       51.6974         0.000       
     189       51.4266         0.000       
     188       51.0060         0.000       
     187       50.7655         0.000       
     186       50.6080         0.000       
     185       50.3216         0.000       
     184       49.7851         0.000       
     183       49.3694         0.000       
     182       48.5677         0.000       
     181       47.7594         0.000       
     180       47.4929         0.000       
     179       46.7507         0.000       
     178       46.5446         0.000       
     177       45.9396         0.000       
     176       45.0384         0.000       
     175       44.6968         0.000       
     174       43.8152         0.000       
     173       43.6721         0.000       
     172       42.9633         0.000       
     171       42.1181         0.000       
     170       41.7782         0.000       
     169       41.5209         0.000       
     168       40.9401         0.000       
     167       40.7020         0.000       
     166       40.2984         0.000       
     165       39.8299         0.000       
     164       39.5504         0.000       
     163       39.0091         0.000       
     162       38.1278         0.000       
     161       37.8606         0.000       
     160       37.4482         0.000       
     159       36.7508         0.000       
     158       36.3064         0.000       
     157       36.0490         0.000       
     156       35.7244         0.000       
     155       35.5529         0.000       
     154       34.9634         0.000       
     153       34.4971         0.000       
     152       34.2324         0.000       
     151       33.8633         0.000       
     150       33.4719         0.000       
     149       33.3358         0.000       
     148       32.1265         0.000       
     147       31.7812         0.000       
     146       31.4876         0.000       
     145       31.2420         0.000       
     144       30.8288         0.000       
     143       30.2134         0.000       
     142       29.8255         0.000       
     141       29.7412         0.000       
     140       29.5609         0.000       
     139       29.2627         0.000       
     138       28.8658         0.000       
     137       28.6134         0.000       
     136       28.2508         0.000       
     135       27.9822         0.000       
     134       27.4011         0.000       
     133       27.3080         0.000       
     132       26.3788         0.000       
     131       26.0412         0.000       
     130       25.5485         0.000       
     129       25.2126         0.000       
     128       24.8762         0.000       
     127       24.6100         0.000       
     126       24.0456         0.000       
     125       23.7091         0.000       
     124       22.9125         0.000       
     123       22.6742         0.000       
     122       22.2731         0.000       
     121       21.9546         0.000       
     120       21.6761         0.000       
     119       21.4964         0.000       
     118       20.9361         0.000       
     117       20.5004         0.000       
     116       20.1229         0.000       
     115       19.5267         0.000       
     114       18.9790         0.000       
     113       18.8135         0.000       
     112       18.3811         0.000       
     111       17.9220         0.000       
     110       17.8259         0.000       
     109       16.9167         0.000       
     108       16.7178         0.000       
     107       16.6405         0.000       
     106       15.3593         0.000       
     105       15.1575         0.000       
     104       15.0445         0.000       
     103       14.6841         0.000       
     102       14.1968         0.000       
     101       13.6089         0.000       
     100       13.5259         0.000       
      99       13.0893         0.000       
      98       12.9489         0.000       
      97       12.7701         0.000       
      96       12.0014         0.000       
      95       11.4864         0.000       
      94       11.2325         0.000       
      93       10.9785         0.000       
      92       10.6765         0.000       
      91       10.6181         0.000       
      90       10.5529         0.000       
      89       10.1146         0.000       
      88        9.9022         0.000       
      87        9.6965         0.000       
      86        9.5059         0.000       
      85        9.3487         0.000       
      84        9.2833         0.000       
      83        9.0789         0.000       
      82        8.8568         0.000       
      81        8.6891         0.000       
      80        8.4640         0.000       
      79        8.1549         0.000       
      78        7.8272         0.000       
      77        7.5857         0.000       
      76        7.4723         0.000       
      75        7.1827         0.000       
      74        7.0426         0.000       
      73        6.7724         0.000       
      72        6.5212         0.000       
      71        6.1039         0.000       
      70        5.9096         0.000       
      69        5.7120         0.000       
      68        5.6502         0.000       
      67        5.5419         0.000       
      66        5.3025         0.000       
      65        5.1382         0.000       
      64        4.7273         0.000       
      63        4.4186         0.000       
      62        4.2619         0.000       
      61        4.1790         0.000       
      60        3.8257         0.000       
      59        3.6812         0.000       
      58        3.4362         0.000       
      57        3.1577         0.000       
      56        2.8161         0.000       
      55        2.5698         0.000       
      54        2.1912         0.000       
      53        1.9130         0.000       
      52        1.7652         0.000       
      51        1.4378         0.000       
      50        1.1670         0.000       
      49        1.0366         0.000       
      48        0.8204         0.000       
      47        0.6281         0.000       
      46        0.2104         0.000       
      45        0.2034         0.000       
      44       -0.1066         0.000       
      43       -0.6238         0.000       
      42       -0.7693         0.000       
      41       -1.7907         0.000 < LUMO
      40       -3.5951         2.000 < HOMO
      39       -5.8440         2.000       
      38       -6.2240         2.000       
      37       -7.8009         2.000       
      36       -8.1198         2.000       
      35       -8.4286         2.000       
      34       -8.8691         2.000       
      33       -9.2918         2.000       
      32       -9.6271         2.000       
      31       -9.6835         2.000       
      30       -9.7093         2.000       
      29       -9.8028         2.000       
      28       -9.9402         2.000       
      27      -10.3226         2.000       
      26      -10.8116         2.000       
      25      -11.1111         2.000       
      24      -11.5039         2.000       
      23      -11.9991         2.000       
      22      -12.7535         2.000       
      21      -14.1718         2.000       
      20      -14.3541         2.000       
      19      -15.0346         2.000       
      18      -16.3708         2.000       
      17      -17.5972         2.000       
      16      -17.9279         2.000       
      15      -18.3243         2.000       
      14      -19.5121         2.000       
      13      -20.7494         2.000       
      12      -24.4975         2.000       
      11     -269.4843         2.000       
      10     -269.5924         2.000       
       9     -269.6684         2.000       
       8     -269.7048         2.000       
       7     -269.7386         2.000       
       6     -270.1090         2.000       
       5     -270.1749         2.000       
       4     -270.2351         2.000       
       3     -270.2696         2.000       
       2     -270.8493         2.000       
       1     -383.5331         2.000       

AMS application finished. Exiting.
NORMAL TERMINATION
     Total cpu time:      92.71
  Total system time:       0.36
 Total elapsed time:      93.64
NORMAL TERMINATION
