
 *******************************************************************************
 *                                                                             *
 *  --------------------------------                                           *
 *   Amsterdam Modeling Suite (AMS)              2026.103                      *
 *  --------------------------------                                           *
 *                                               r260501 2026-05-01 873454b5   *
 *                                                                             *
 *                                                                             *
 *                              =================                              *
 *                              |               |                              *
 *                              |     A M S     |                              *
 *                              |               |                              *
 *                              =================                              *
 *                                                                             *
 *                                                                             *
 *   Online information and documentation:  https://www.scm.com/support/       *
 *   E-mail:  support@scm.com   info@scm.com                                   *
 *                                                                             *
 *   Scientific publications using AMS results must be properly referenced     *
 *   See the User Manuals (or the web site) for recommended citations          *
 *   The terms and conditions of the End User License Agreement apply to       *
 *   the use of AMS, https://www.scm.com/license-terms/                        *
 *                                                                             *
 **********************  x86_64_linux_intel / intelmpi  ************************
 
 Licensed to: Jong-June Jeon / University of Seoul 2026-05-13 16:10:32
 SCM User ID: u30731
  
 AMS 2026.103  RunTime: May30-2026 10:12:07  ShM Nodes: 1  Procs: 1

 AMS jobname: c1_fragA_ts
 AMS jobid  : 1210254431

 Start   directory: /gpfs/home1/yeseo1ee/projects/eda-asm-prediction/adf_outputs/batch_000/dipolar_001152/
 Results directory: /gpfs/home1/yeseo1ee/projects/eda-asm-prediction/adf_outputs/batch_000/dipolar_001152/c1_fragA_ts.results/
 Scratch directory: /tmp/amstmp_c1_fragA_ts_kid0.1210254431/

 RNG seed: -798399441 774481368 781047146 -1803465261 759508660 -450484519 1699260232 1858352362



                      ************************************************************************
                      *  ADF 2026.103  RunTime: May30-2026 10:12:08  ShM Nodes: 1  Procs: 1  *
                      ************************************************************************
  

       ****************************
       * SINGLE POINT CALCULATION *
       ****************************

--------
Geometry
--------
Formula: C5H7N3O3
Atoms
  Index Symbol   x (angstrom)   y (angstrom)   z (angstrom)
      1      C     5.28382000     2.16930000     0.93674000
      2      N     4.13967000     1.39894000     0.50254000
      3      C     2.87380000     1.81803000     0.72560000
      4      O     2.60096000     2.86380000     1.32592000
      5      N     1.93458000     0.91574000     0.19899000
      6      N     0.72165000     1.24874000     0.36394000
      7      C    -0.44808000     0.96957000     0.22256000
      8      C    -1.71205000     1.68193000     0.40916000
      9      O    -1.81471000     2.65367000     1.13313000
     10      O    -2.70578000     1.14944000    -0.29046000
     11      C    -4.01705000     1.69310000    -0.08351000
     12      H     5.23457000     2.38034000     2.01670000
     13      H     6.19685000     1.59573000     0.73441000
     14      H     5.35462000     3.13571000     0.40912000
     15      H     4.27343000     0.54652000    -0.03016000
     16      H    -4.69228000     1.07764000    -0.68799000
     17      H    -4.29024000     1.62939000     0.97931000
     18      H    -4.05373000     2.74082000    -0.41373000

Total System Charge              0.00000


----------------
ADF Engine Input
----------------
 
   Basis
     Type TZ2P
     Core None
   End
   XC
     GGA BLYP
     Dispersion GRIMME3 BJDAMP
   End
   Symmetry NOSYM
   NumericalQuality Normal
   Unrestricted No
   SCF
     Iterations 200
     Converge 1.0e-6
   End
   Save TAPE21
 

 Title: *** (NO TITLE) ***

 *** adf ***



 ===========================
 A T T A C H E D   F I L E S
 ===========================
  



 ===============================
 M O D E L   P A R A M E T E R S
 ===============================
  
 DENSITY FUNCTIONAL POTENTIAL (scf)
    LDA:                               Exchange only                           == Not Default ==
    Gradient Corrections:              Becke88 LYP                             == Not Default ==

 SPIN  (restricted / unrestr.)
    Molecule:                          Restricted                               
    Fragments:                         Restricted                               

 OTHER ASPECTS
    Relativistic Corrections:          scalar (ZORA,MAPA)                       

    Nuclear Charge Density Model:      Point Charge Nuclei                      
    Core Treatment:                    Frozen Orbital(s)                        

    Hyperfine or Zeeman Interaction:   ---                                      

 Settings for Grimme D3 dispersion correction

      damping                        BJ
      s6                          1.000
      s8                          2.700
      a1                          0.430
      a2                          4.236

 Other (technical) parameters

      alpha                      14.000
      version                         4
 


 Fragment File(s)
 ----------------
 C:
         file : /gpfs/home1/yeseo1ee/projects/eda-asm-prediction/adf_outputs/batch_000/dipolar_001152/c1_fragA_ts.results/t21.50BA88D5.C
         jobid: 0
         title: Carbon (TZ2P)
 N:
         file : /gpfs/home1/yeseo1ee/projects/eda-asm-prediction/adf_outputs/batch_000/dipolar_001152/c1_fragA_ts.results/t21.44EAA48D.N
         jobid: 0
         title: Nitrogen (TZ2P)
 O:
         file : /gpfs/home1/yeseo1ee/projects/eda-asm-prediction/adf_outputs/batch_000/dipolar_001152/c1_fragA_ts.results/t21.6E90ABAE.O
         jobid: 0
         title: Oxygen (TZ2P)
 H:
         file : /gpfs/home1/yeseo1ee/projects/eda-asm-prediction/adf_outputs/batch_000/dipolar_001152/c1_fragA_ts.results/t21.6F35CCAB.H
         jobid: 0
         title: Hydrogen (TZ2P)



 ===============
 G E O M E T R Y  ***  3D  Molecule  ***
 ===============
  

 ATOMS
 =====                            X Y Z                    CHARGE
                                (Angstrom)             Nucl     +Core       At.Mass
                       --------------------------    ----------------       -------
    1  C               5.2838    2.1693    0.9367      6.00      6.00       12.0000
    2  N               4.1397    1.3989    0.5025      7.00      7.00       14.0031
    3  C               2.8738    1.8180    0.7256      6.00      6.00       12.0000
    4  O               2.6010    2.8638    1.3259      8.00      8.00       15.9949
    5  N               1.9346    0.9157    0.1990      7.00      7.00       14.0031
    6  N               0.7217    1.2487    0.3639      7.00      7.00       14.0031
    7  C              -0.4481    0.9696    0.2226      6.00      6.00       12.0000
    8  C              -1.7121    1.6819    0.4092      6.00      6.00       12.0000
    9  O              -1.8147    2.6537    1.1331      8.00      8.00       15.9949
   10  O              -2.7058    1.1494   -0.2905      8.00      8.00       15.9949
   11  C              -4.0171    1.6931   -0.0835      6.00      6.00       12.0000
   12  H               5.2346    2.3803    2.0167      1.00      1.00        1.0078
   13  H               6.1969    1.5957    0.7344      1.00      1.00        1.0078
   14  H               5.3546    3.1357    0.4091      1.00      1.00        1.0078
   15  H               4.2734    0.5465   -0.0302      1.00      1.00        1.0078
   16  H              -4.6923    1.0776   -0.6880      1.00      1.00        1.0078
   17  H              -4.2902    1.6294    0.9793      1.00      1.00        1.0078
   18  H              -4.0537    2.7408   -0.4137      1.00      1.00        1.0078


 FRAGMENTS
 =========                                     Atoms in this Fragment     Cart. coord.s (Angstrom)
                                               -------------------------------------------------------
    1  C                                                 1  C            5.2838    2.1693    0.9367
    2  C                                                 3  C            2.8738    1.8180    0.7256
    3  C                                                 7  C           -0.4481    0.9696    0.2226
    4  C                                                 8  C           -1.7121    1.6819    0.4092
    5  C                                                11  C           -4.0171    1.6931   -0.0835
    6  N                                                 2  N            4.1397    1.3989    0.5025
    7  N                                                 5  N            1.9346    0.9157    0.1990
    8  N                                                 6  N            0.7217    1.2487    0.3639
    9  O                                                 4  O            2.6010    2.8638    1.3259
   10  O                                                 9  O           -1.8147    2.6537    1.1331
   11  O                                                10  O           -2.7058    1.1494   -0.2905
   12  H                                                12  H            5.2346    2.3803    2.0167
   13  H                                                13  H            6.1969    1.5957    0.7344
   14  H                                                14  H            5.3546    3.1357    0.4091
   15  H                                                15  H            4.2734    0.5465   -0.0302
   16  H                                                16  H           -4.6923    1.0776   -0.6880
   17  H                                                17  H           -4.2902    1.6294    0.9793
   18  H                                                18  H           -4.0537    2.7408   -0.4137


 Interatomic Distance Matrix (Angstrom)
 --------------------------------------

   1)     0.000
   2)     1.446   0.000
   3)     2.445   1.352   0.000
   4)     2.798   2.278   1.236   0.000
   5)     3.651   2.278   1.405   2.347   0.000
   6)     4.689   3.424   2.255   2.658   1.269   0.000
   7)     5.899   4.616   3.465   3.755   2.383   1.211   0.000
   8)     7.033   5.859   4.599   4.565   3.732   2.472   1.463   0.000
   9)     7.118   6.118   4.780   4.425   4.237   3.000   2.352   1.216   0.000
  10)     8.147   6.896   5.711   5.806   4.672   3.491   2.322   1.327   2.255   0.000
  11)     9.369   8.183   6.939   6.867   6.009   4.780   3.654   2.357   2.693   1.435
          0.000
  12)     1.101   2.111   2.749   2.765   4.042   4.937   6.124   7.164   7.110   8.360
          9.512   0.000
  13)     1.097   2.080   3.330   3.859   4.349   5.499   6.694   7.916   8.091   8.973
         10.247   1.785   0.000
  14)     1.103   2.122   2.827   2.915   4.083   5.003   6.197   7.215   7.222   8.331
          9.495   1.780   1.785   0.000
  15)     2.142   1.014   2.036   3.163   2.379   3.642   4.747   6.108   6.547   7.010
          8.370   2.911   2.321   2.840   0.000
  16)    10.166   8.918   7.733   7.774   6.688   5.518   4.342   3.233   3.752   2.027
          1.096  10.371  10.994  10.314   9.005   0.000
  17)     9.589   8.447   7.171   7.009   6.314   5.064   3.971   2.641   2.683   2.086
          1.099   9.611  10.490   9.778   8.691   1.802   0.000
  18)     9.452   8.353   7.081   6.879   6.290   5.063   4.067   2.698   2.723   2.089
          1.099   9.608  10.378   9.453   8.620   1.803   1.798   0.000

 Min. Distance =    1.0140
 Max. Distance =   10.9939



 =====================================
 S Y M M E T R Y ,   E L E C T R O N S
 =====================================
  
 Symmetry: NOSYM

 Irreducible Representations, including subspecies
 -------------------------------------------------
 A


 Configuration of Valence Electrons
 ==================================
 ( determined in the SCF procedure )

 Total:   82

 Net Charge: 0 (Nuclei minus Electrons)

 Aufbau principle for MO occupations will be applied through SCF cycle no.     100
 Thereafter, the program will assign electrons to MOs that are spatially
 similar to the occupied MOs in a "reference" cycle ("KeepOrbitals").
 The reference cycle is always the PREVIOUS cycle: it will evolve with
 the SCF procedure.
 ***************************************************************************************************



                                      ****************************************
                                      *  B U I L D : (Fragments, Functions)  *
                                      ****************************************
  



 =======
 S F O s  ***  (Symmetrized Fragment Orbitals)  ***
 =======
  
 SFOs are linear combinations of (valence) Fragment Orbitals (FOs), such that the SFOs transform as the
 irreducible representations of the (molecular) symmetry group. Each SFO is therefore characterized by
 an irrep of the molecule and by a few (or only one) generating FOs.
 The SFOs constitute a symmetry-adapted basis for the Fock matrix. The MO eigenvector coefficients in
 this basis provide a direct interpretation of the MOs in terms of Frontier Orbital Theory.

 The SFOs are combined with auxiliary Core Functions (CFs) to ensure orthogonalization on the (frozen)
 Core Orbitals (COs). The Core-orthogonalized SFOs (CSFOs) constitute the true Fock basis.

 The FOs, and hence also the (C)SFOs are combinations of the elementary basis functions (BAS). The basis
 functions that participate in the description of the SFOs depend on the irrep. The indices of the
 involved functions are printed below for each irrep.
 (The complete list of primitive basis functions is printed in another section)

 Total nr. of (C)SFOs (summation over all irreps) :   363

 NOTE: a (C)SFO that is defined as a combination of more than one FO is usually NOT normalized.



                                       === A ===
 Nr. of SFOs :  363
 Cartesian basis functions that participate in this irrep (total number =   414) :
      1     2     3     4     5     6     9    12     7    10
     13     8    11    14    15    16    17    18    19    20
     21    22    23    24    25    26    27    28    29    30
     31    32    33    34    35    36    39    42    37    40
     43    38    41    44    45    46    47    48    49    50
     51    52    53    54    55    56    57    58    59    60
     61    62    63    64    65    66    69    72    67    70
     73    68    71    74    75    76    77    78    79    80
     81    82    83    84    85    86    87    88    89    90
     91    92    93    94    95    96    99   102    97   100
    103    98   101   104   105   106   107   108   109   110
    111   112   113   114   115   116   117   118   119   120
    121   122   123   124   125   126   129   132   127   130
    133   128   131   134   135   136   137   138   139   140
    141   142   143   144   145   146   147   148   149   150
    151   152   153   154   155   156   159   162   157   160
    163   158   161   164   165   166   167   168   169   170
    171   172   173   174   175   176   177   178   179   180
    181   182   183   184   185   186   189   192   187   190
    193   188   191   194   195   196   197   198   199   200
    201   202   203   204   205   206   207   208   209   210
    211   212   213   214   215   216   219   222   217   220
    223   218   221   224   225   226   227   228   229   230
    231   232   233   234   235   236   237   238   239   240
    241   242   243   244   245   246   249   252   247   250
    253   248   251   254   255   256   257   258   259   260
    261   262   263   264   265   266   267   268   269   270
    271   272   273   274   275   276   279   282   277   280
    283   278   281   284   285   286   287   288   289   290
    291   292   293   294   295   296   297   298   299   300
    301   302   303   304   305   306   309   312   307   310
    313   308   311   314   315   316   317   318   319   320
    321   322   323   324   325   326   327   328   329   330
    331   332   333   334   335   336   337   338   339   340
    341   342   343   344   345   346   347   348   349   350
    351   352   353   354   355   356   357   358   359   360
    361   362   363   364   365   366   367   368   369   370
    371   372   373   374   375   376   377   378   379   380
    381   382   383   384   385   386   387   388   389   390
    391   392   393   394   395   396   397   398   399   400
    401   402   403   404   405   406   407   408   409   410
    411   412   413   414

    SFO  (index         Fragment          Generating    Expansion in Fragment Orbitals
  indx  incl.CFs)   Occup   Orb.Energy   FragmentType  Coeff.   Orbital     on Fragment
 --------------------------------------------------------------------------------------
     1       1      2.000     -10.066 au  C             1.00      1 S               1
                        (    -273.921 eV)
     2       2      2.000      -0.501 au  C             1.00      2 S               1
                        (     -13.620 eV)
     3       3       --         0.373 au  C             1.00      3 S               1
                        (      10.158 eV)
     4       4       --         5.405 au  C             1.00      4 S               1
                        (     147.073 eV)
     5       5       --        49.848 au  C             1.00      5 S               1
                        (    1356.422 eV)
     6       6      0.667      -0.193 au  C             1.00      1 P:x             1
                        (      -5.239 eV)
     7       7       --         0.169 au  C             1.00      2 P:x             1
                        (       4.589 eV)
     8       8       --         2.013 au  C             1.00      3 P:x             1
                        (      54.789 eV)
     9       9      0.667      -0.193 au  C             1.00      1 P:y             1
                        (      -5.239 eV)
    10      10       --         0.169 au  C             1.00      2 P:y             1
                        (       4.589 eV)
    11      11       --         2.013 au  C             1.00      3 P:y             1
                        (      54.789 eV)
    12      12      0.667      -0.193 au  C             1.00      1 P:z             1
                        (      -5.239 eV)
    13      13       --         0.169 au  C             1.00      2 P:z             1
                        (       4.589 eV)
    14      14       --         2.013 au  C             1.00      3 P:z             1
                        (      54.789 eV)
    15      15       --         1.243 au  C             1.00      1 D:z2            1
                        (      33.824 eV)
    16      16       --         1.243 au  C             1.00      1 D:x2-y2         1
                        (      33.824 eV)
    17      17       --         1.243 au  C             1.00      1 D:xy            1
                        (      33.824 eV)
    18      18       --         1.243 au  C             1.00      1 D:xz            1
                        (      33.824 eV)
    19      19       --         1.243 au  C             1.00      1 D:yz            1
                        (      33.824 eV)
    20      20       --         4.016 au  C             1.00      1 F:z3            1
                        (     109.271 eV)
    21      21       --         4.016 au  C             1.00      1 F:z             1
                        (     109.271 eV)
    22      22       --         4.016 au  C             1.00      1 F:xyz           1
                        (     109.271 eV)
    23      23       --         4.016 au  C             1.00      1 F:z2x           1
                        (     109.271 eV)
    24      24       --         4.016 au  C             1.00      1 F:z2y           1
                        (     109.271 eV)
    25      25       --         4.016 au  C             1.00      1 F:x             1
                        (     109.271 eV)
    26      26       --         4.016 au  C             1.00      1 F:y             1
                        (     109.271 eV)
    27      27      2.000     -10.066 au  C             1.00      1 S               2
                        (    -273.921 eV)
    28      28      2.000      -0.501 au  C             1.00      2 S               2
                        (     -13.620 eV)
    29      29       --         0.373 au  C             1.00      3 S               2
                        (      10.158 eV)
    30      30       --         5.405 au  C             1.00      4 S               2
                        (     147.073 eV)
    31      31       --        49.848 au  C             1.00      5 S               2
                        (    1356.422 eV)
    32      32      0.667      -0.193 au  C             1.00      1 P:x             2
                        (      -5.239 eV)
    33      33       --         0.169 au  C             1.00      2 P:x             2
                        (       4.589 eV)
    34      34       --         2.013 au  C             1.00      3 P:x             2
                        (      54.789 eV)
    35      35      0.667      -0.193 au  C             1.00      1 P:y             2
                        (      -5.239 eV)
    36      36       --         0.169 au  C             1.00      2 P:y             2
                        (       4.589 eV)
    37      37       --         2.013 au  C             1.00      3 P:y             2
                        (      54.789 eV)
    38      38      0.667      -0.193 au  C             1.00      1 P:z             2
                        (      -5.239 eV)
    39      39       --         0.169 au  C             1.00      2 P:z             2
                        (       4.589 eV)
    40      40       --         2.013 au  C             1.00      3 P:z             2
                        (      54.789 eV)
    41      41       --         1.243 au  C             1.00      1 D:z2            2
                        (      33.824 eV)
    42      42       --         1.243 au  C             1.00      1 D:x2-y2         2
                        (      33.824 eV)
    43      43       --         1.243 au  C             1.00      1 D:xy            2
                        (      33.824 eV)
    44      44       --         1.243 au  C             1.00      1 D:xz            2
                        (      33.824 eV)
    45      45       --         1.243 au  C             1.00      1 D:yz            2
                        (      33.824 eV)
    46      46       --         4.016 au  C             1.00      1 F:z3            2
                        (     109.271 eV)
    47      47       --         4.016 au  C             1.00      1 F:z             2
                        (     109.271 eV)
    48      48       --         4.016 au  C             1.00      1 F:xyz           2
                        (     109.271 eV)
    49      49       --         4.016 au  C             1.00      1 F:z2x           2
                        (     109.271 eV)
    50      50       --         4.016 au  C             1.00      1 F:z2y           2
                        (     109.271 eV)
    51      51       --         4.016 au  C             1.00      1 F:x             2
                        (     109.271 eV)
    52      52       --         4.016 au  C             1.00      1 F:y             2
                        (     109.271 eV)
    53      53      2.000     -10.066 au  C             1.00      1 S               3
                        (    -273.921 eV)
    54      54      2.000      -0.501 au  C             1.00      2 S               3
                        (     -13.620 eV)
    55      55       --         0.373 au  C             1.00      3 S               3
                        (      10.158 eV)
    56      56       --         5.405 au  C             1.00      4 S               3
                        (     147.073 eV)
    57      57       --        49.848 au  C             1.00      5 S               3
                        (    1356.422 eV)
    58      58      0.667      -0.193 au  C             1.00      1 P:x             3
                        (      -5.239 eV)
    59      59       --         0.169 au  C             1.00      2 P:x             3
                        (       4.589 eV)
    60      60       --         2.013 au  C             1.00      3 P:x             3
                        (      54.789 eV)
    61      61      0.667      -0.193 au  C             1.00      1 P:y             3
                        (      -5.239 eV)
    62      62       --         0.169 au  C             1.00      2 P:y             3
                        (       4.589 eV)
    63      63       --         2.013 au  C             1.00      3 P:y             3
                        (      54.789 eV)
    64      64      0.667      -0.193 au  C             1.00      1 P:z             3
                        (      -5.239 eV)
    65      65       --         0.169 au  C             1.00      2 P:z             3
                        (       4.589 eV)
    66      66       --         2.013 au  C             1.00      3 P:z             3
                        (      54.789 eV)
    67      67       --         1.243 au  C             1.00      1 D:z2            3
                        (      33.824 eV)
    68      68       --         1.243 au  C             1.00      1 D:x2-y2         3
                        (      33.824 eV)
    69      69       --         1.243 au  C             1.00      1 D:xy            3
                        (      33.824 eV)
    70      70       --         1.243 au  C             1.00      1 D:xz            3
                        (      33.824 eV)
    71      71       --         1.243 au  C             1.00      1 D:yz            3
                        (      33.824 eV)
    72      72       --         4.016 au  C             1.00      1 F:z3            3
                        (     109.271 eV)
    73      73       --         4.016 au  C             1.00      1 F:z             3
                        (     109.271 eV)
    74      74       --         4.016 au  C             1.00      1 F:xyz           3
                        (     109.271 eV)
    75      75       --         4.016 au  C             1.00      1 F:z2x           3
                        (     109.271 eV)
    76      76       --         4.016 au  C             1.00      1 F:z2y           3
                        (     109.271 eV)
    77      77       --         4.016 au  C             1.00      1 F:x             3
                        (     109.271 eV)
    78      78       --         4.016 au  C             1.00      1 F:y             3
                        (     109.271 eV)
    79      79      2.000     -10.066 au  C             1.00      1 S               4
                        (    -273.921 eV)
    80      80      2.000      -0.501 au  C             1.00      2 S               4
                        (     -13.620 eV)
    81      81       --         0.373 au  C             1.00      3 S               4
                        (      10.158 eV)
    82      82       --         5.405 au  C             1.00      4 S               4
                        (     147.073 eV)
    83      83       --        49.848 au  C             1.00      5 S               4
                        (    1356.422 eV)
    84      84      0.667      -0.193 au  C             1.00      1 P:x             4
                        (      -5.239 eV)
    85      85       --         0.169 au  C             1.00      2 P:x             4
                        (       4.589 eV)
    86      86       --         2.013 au  C             1.00      3 P:x             4
                        (      54.789 eV)
    87      87      0.667      -0.193 au  C             1.00      1 P:y             4
                        (      -5.239 eV)
    88      88       --         0.169 au  C             1.00      2 P:y             4
                        (       4.589 eV)
    89      89       --         2.013 au  C             1.00      3 P:y             4
                        (      54.789 eV)
    90      90      0.667      -0.193 au  C             1.00      1 P:z             4
                        (      -5.239 eV)
    91      91       --         0.169 au  C             1.00      2 P:z             4
                        (       4.589 eV)
    92      92       --         2.013 au  C             1.00      3 P:z             4
                        (      54.789 eV)
    93      93       --         1.243 au  C             1.00      1 D:z2            4
                        (      33.824 eV)
    94      94       --         1.243 au  C             1.00      1 D:x2-y2         4
                        (      33.824 eV)
    95      95       --         1.243 au  C             1.00      1 D:xy            4
                        (      33.824 eV)
    96      96       --         1.243 au  C             1.00      1 D:xz            4
                        (      33.824 eV)
    97      97       --         1.243 au  C             1.00      1 D:yz            4
                        (      33.824 eV)
    98      98       --         4.016 au  C             1.00      1 F:z3            4
                        (     109.271 eV)
    99      99       --         4.016 au  C             1.00      1 F:z             4
                        (     109.271 eV)
   100     100       --         4.016 au  C             1.00      1 F:xyz           4
                        (     109.271 eV)
   101     101       --         4.016 au  C             1.00      1 F:z2x           4
                        (     109.271 eV)
   102     102       --         4.016 au  C             1.00      1 F:z2y           4
                        (     109.271 eV)
   103     103       --         4.016 au  C             1.00      1 F:x             4
                        (     109.271 eV)
   104     104       --         4.016 au  C             1.00      1 F:y             4
                        (     109.271 eV)
   105     105      2.000     -10.066 au  C             1.00      1 S               5
                        (    -273.921 eV)
   106     106      2.000      -0.501 au  C             1.00      2 S               5
                        (     -13.620 eV)
   107     107       --         0.373 au  C             1.00      3 S               5
                        (      10.158 eV)
   108     108       --         5.405 au  C             1.00      4 S               5
                        (     147.073 eV)
   109     109       --        49.848 au  C             1.00      5 S               5
                        (    1356.422 eV)
   110     110      0.667      -0.193 au  C             1.00      1 P:x             5
                        (      -5.239 eV)
   111     111       --         0.169 au  C             1.00      2 P:x             5
                        (       4.589 eV)
   112     112       --         2.013 au  C             1.00      3 P:x             5
                        (      54.789 eV)
   113     113      0.667      -0.193 au  C             1.00      1 P:y             5
                        (      -5.239 eV)
   114     114       --         0.169 au  C             1.00      2 P:y             5
                        (       4.589 eV)
   115     115       --         2.013 au  C             1.00      3 P:y             5
                        (      54.789 eV)
   116     116      0.667      -0.193 au  C             1.00      1 P:z             5
                        (      -5.239 eV)
   117     117       --         0.169 au  C             1.00      2 P:z             5
                        (       4.589 eV)
   118     118       --         2.013 au  C             1.00      3 P:z             5
                        (      54.789 eV)
   119     119       --         1.243 au  C             1.00      1 D:z2            5
                        (      33.824 eV)
   120     120       --         1.243 au  C             1.00      1 D:x2-y2         5
                        (      33.824 eV)
   121     121       --         1.243 au  C             1.00      1 D:xy            5
                        (      33.824 eV)
   122     122       --         1.243 au  C             1.00      1 D:xz            5
                        (      33.824 eV)
   123     123       --         1.243 au  C             1.00      1 D:yz            5
                        (      33.824 eV)
   124     124       --         4.016 au  C             1.00      1 F:z3            5
                        (     109.271 eV)
   125     125       --         4.016 au  C             1.00      1 F:z             5
                        (     109.271 eV)
   126     126       --         4.016 au  C             1.00      1 F:xyz           5
                        (     109.271 eV)
   127     127       --         4.016 au  C             1.00      1 F:z2x           5
                        (     109.271 eV)
   128     128       --         4.016 au  C             1.00      1 F:z2y           5
                        (     109.271 eV)
   129     129       --         4.016 au  C             1.00      1 F:x             5
                        (     109.271 eV)
   130     130       --         4.016 au  C             1.00      1 F:y             5
                        (     109.271 eV)
   131     131      2.000     -14.160 au  N             1.00      1 S               6
                        (    -385.319 eV)
   132     132      2.000      -0.678 au  N             1.00      2 S               6
                        (     -18.450 eV)
   133     133       --         0.517 au  N             1.00      3 S               6
                        (      14.073 eV)
   134     134       --         6.872 au  N             1.00      4 S               6
                        (     186.990 eV)
   135     135       --        63.432 au  N             1.00      5 S               6
                        (    1726.082 eV)
   136     136      1.000      -0.260 au  N             1.00      1 P:x             6
                        (      -7.062 eV)
   137     137       --         0.281 au  N             1.00      2 P:x             6
                        (       7.649 eV)
   138     138       --         3.275 au  N             1.00      3 P:x             6
                        (      89.105 eV)
   139     139      1.000      -0.260 au  N             1.00      1 P:y             6
                        (      -7.062 eV)
   140     140       --         0.281 au  N             1.00      2 P:y             6
                        (       7.649 eV)
   141     141       --         3.275 au  N             1.00      3 P:y             6
                        (      89.105 eV)
   142     142      1.000      -0.260 au  N             1.00      1 P:z             6
                        (      -7.062 eV)
   143     143       --         0.281 au  N             1.00      2 P:z             6
                        (       7.649 eV)
   144     144       --         3.275 au  N             1.00      3 P:z             6
                        (      89.105 eV)
   145     145       --         1.250 au  N             1.00      1 D:z2            6
                        (      34.005 eV)
   146     146       --         1.250 au  N             1.00      1 D:x2-y2         6
                        (      34.005 eV)
   147     147       --         1.250 au  N             1.00      1 D:xy            6
                        (      34.005 eV)
   148     148       --         1.250 au  N             1.00      1 D:xz            6
                        (      34.005 eV)
   149     149       --         1.250 au  N             1.00      1 D:yz            6
                        (      34.005 eV)
   150     150       --         4.013 au  N             1.00      1 F:z3            6
                        (     109.190 eV)
   151     151       --         4.013 au  N             1.00      1 F:z             6
                        (     109.190 eV)
   152     152       --         4.013 au  N             1.00      1 F:xyz           6
                        (     109.190 eV)
   153     153       --         4.013 au  N             1.00      1 F:z2x           6
                        (     109.190 eV)
   154     154       --         4.013 au  N             1.00      1 F:z2y           6
                        (     109.190 eV)
   155     155       --         4.013 au  N             1.00      1 F:x             6
                        (     109.190 eV)
   156     156       --         4.013 au  N             1.00      1 F:y             6
                        (     109.190 eV)
   157     157      2.000     -14.160 au  N             1.00      1 S               7
                        (    -385.319 eV)
   158     158      2.000      -0.678 au  N             1.00      2 S               7
                        (     -18.450 eV)
   159     159       --         0.517 au  N             1.00      3 S               7
                        (      14.073 eV)
   160     160       --         6.872 au  N             1.00      4 S               7
                        (     186.990 eV)
   161     161       --        63.432 au  N             1.00      5 S               7
                        (    1726.082 eV)
   162     162      1.000      -0.260 au  N             1.00      1 P:x             7
                        (      -7.062 eV)
   163     163       --         0.281 au  N             1.00      2 P:x             7
                        (       7.649 eV)
   164     164       --         3.275 au  N             1.00      3 P:x             7
                        (      89.105 eV)
   165     165      1.000      -0.260 au  N             1.00      1 P:y             7
                        (      -7.062 eV)
   166     166       --         0.281 au  N             1.00      2 P:y             7
                        (       7.649 eV)
   167     167       --         3.275 au  N             1.00      3 P:y             7
                        (      89.105 eV)
   168     168      1.000      -0.260 au  N             1.00      1 P:z             7
                        (      -7.062 eV)
   169     169       --         0.281 au  N             1.00      2 P:z             7
                        (       7.649 eV)
   170     170       --         3.275 au  N             1.00      3 P:z             7
                        (      89.105 eV)
   171     171       --         1.250 au  N             1.00      1 D:z2            7
                        (      34.005 eV)
   172     172       --         1.250 au  N             1.00      1 D:x2-y2         7
                        (      34.005 eV)
   173     173       --         1.250 au  N             1.00      1 D:xy            7
                        (      34.005 eV)
   174     174       --         1.250 au  N             1.00      1 D:xz            7
                        (      34.005 eV)
   175     175       --         1.250 au  N             1.00      1 D:yz            7
                        (      34.005 eV)
   176     176       --         4.013 au  N             1.00      1 F:z3            7
                        (     109.190 eV)
   177     177       --         4.013 au  N             1.00      1 F:z             7
                        (     109.190 eV)
   178     178       --         4.013 au  N             1.00      1 F:xyz           7
                        (     109.190 eV)
   179     179       --         4.013 au  N             1.00      1 F:z2x           7
                        (     109.190 eV)
   180     180       --         4.013 au  N             1.00      1 F:z2y           7
                        (     109.190 eV)
   181     181       --         4.013 au  N             1.00      1 F:x             7
                        (     109.190 eV)
   182     182       --         4.013 au  N             1.00      1 F:y             7
                        (     109.190 eV)
   183     183      2.000     -14.160 au  N             1.00      1 S               8
                        (    -385.319 eV)
   184     184      2.000      -0.678 au  N             1.00      2 S               8
                        (     -18.450 eV)
   185     185       --         0.517 au  N             1.00      3 S               8
                        (      14.073 eV)
   186     186       --         6.872 au  N             1.00      4 S               8
                        (     186.990 eV)
   187     187       --        63.432 au  N             1.00      5 S               8
                        (    1726.082 eV)
   188     188      1.000      -0.260 au  N             1.00      1 P:x             8
                        (      -7.062 eV)
   189     189       --         0.281 au  N             1.00      2 P:x             8
                        (       7.649 eV)
   190     190       --         3.275 au  N             1.00      3 P:x             8
                        (      89.105 eV)
   191     191      1.000      -0.260 au  N             1.00      1 P:y             8
                        (      -7.062 eV)
   192     192       --         0.281 au  N             1.00      2 P:y             8
                        (       7.649 eV)
   193     193       --         3.275 au  N             1.00      3 P:y             8
                        (      89.105 eV)
   194     194      1.000      -0.260 au  N             1.00      1 P:z             8
                        (      -7.062 eV)
   195     195       --         0.281 au  N             1.00      2 P:z             8
                        (       7.649 eV)
   196     196       --         3.275 au  N             1.00      3 P:z             8
                        (      89.105 eV)
   197     197       --         1.250 au  N             1.00      1 D:z2            8
                        (      34.005 eV)
   198     198       --         1.250 au  N             1.00      1 D:x2-y2         8
                        (      34.005 eV)
   199     199       --         1.250 au  N             1.00      1 D:xy            8
                        (      34.005 eV)
   200     200       --         1.250 au  N             1.00      1 D:xz            8
                        (      34.005 eV)
   201     201       --         1.250 au  N             1.00      1 D:yz            8
                        (      34.005 eV)
   202     202       --         4.013 au  N             1.00      1 F:z3            8
                        (     109.190 eV)
   203     203       --         4.013 au  N             1.00      1 F:z             8
                        (     109.190 eV)
   204     204       --         4.013 au  N             1.00      1 F:xyz           8
                        (     109.190 eV)
   205     205       --         4.013 au  N             1.00      1 F:z2x           8
                        (     109.190 eV)
   206     206       --         4.013 au  N             1.00      1 F:z2y           8
                        (     109.190 eV)
   207     207       --         4.013 au  N             1.00      1 F:x             8
                        (     109.190 eV)
   208     208       --         4.013 au  N             1.00      1 F:y             8
                        (     109.190 eV)
   209     209      2.000     -18.941 au  O             1.00      1 S               9
                        (    -515.403 eV)
   210     210      2.000      -0.876 au  O             1.00      2 S               9
                        (     -23.838 eV)
   211     211       --         0.791 au  O             1.00      3 S               9
                        (      21.524 eV)
   212     212       --        13.422 au  O             1.00      4 S               9
                        (     365.226 eV)
   213     213       --       121.561 au  O             1.00      5 S               9
                        (    3307.838 eV)
   214     214      1.333      -0.331 au  O             1.00      1 P:x             9
                        (      -9.020 eV)
   215     215       --         0.347 au  O             1.00      2 P:x             9
                        (       9.437 eV)
   216     216       --         3.820 au  O             1.00      3 P:x             9
                        (     103.939 eV)
   217     217      1.333      -0.331 au  O             1.00      1 P:y             9
                        (      -9.020 eV)
   218     218       --         0.347 au  O             1.00      2 P:y             9
                        (       9.437 eV)
   219     219       --         3.820 au  O             1.00      3 P:y             9
                        (     103.939 eV)
   220     220      1.333      -0.331 au  O             1.00      1 P:z             9
                        (      -9.020 eV)
   221     221       --         0.347 au  O             1.00      2 P:z             9
                        (       9.437 eV)
   222     222       --         3.820 au  O             1.00      3 P:z             9
                        (     103.939 eV)
   223     223       --         1.071 au  O             1.00      1 D:z2            9
                        (      29.134 eV)
   224     224       --         1.071 au  O             1.00      1 D:x2-y2         9
                        (      29.134 eV)
   225     225       --         1.071 au  O             1.00      1 D:xy            9
                        (      29.134 eV)
   226     226       --         1.071 au  O             1.00      1 D:xz            9
                        (      29.134 eV)
   227     227       --         1.071 au  O             1.00      1 D:yz            9
                        (      29.134 eV)
   228     228       --         3.359 au  O             1.00      1 F:z3            9
                        (      91.410 eV)
   229     229       --         3.359 au  O             1.00      1 F:z             9
                        (      91.410 eV)
   230     230       --         3.359 au  O             1.00      1 F:xyz           9
                        (      91.410 eV)
   231     231       --         3.359 au  O             1.00      1 F:z2x           9
                        (      91.410 eV)
   232     232       --         3.359 au  O             1.00      1 F:z2y           9
                        (      91.410 eV)
   233     233       --         3.359 au  O             1.00      1 F:x             9
                        (      91.410 eV)
   234     234       --         3.359 au  O             1.00      1 F:y             9
                        (      91.410 eV)
   235     235      2.000     -18.941 au  O             1.00      1 S              10
                        (    -515.403 eV)
   236     236      2.000      -0.876 au  O             1.00      2 S              10
                        (     -23.838 eV)
   237     237       --         0.791 au  O             1.00      3 S              10
                        (      21.524 eV)
   238     238       --        13.422 au  O             1.00      4 S              10
                        (     365.226 eV)
   239     239       --       121.561 au  O             1.00      5 S              10
                        (    3307.838 eV)
   240     240      1.333      -0.331 au  O             1.00      1 P:x            10
                        (      -9.020 eV)
   241     241       --         0.347 au  O             1.00      2 P:x            10
                        (       9.437 eV)
   242     242       --         3.820 au  O             1.00      3 P:x            10
                        (     103.939 eV)
   243     243      1.333      -0.331 au  O             1.00      1 P:y            10
                        (      -9.020 eV)
   244     244       --         0.347 au  O             1.00      2 P:y            10
                        (       9.437 eV)
   245     245       --         3.820 au  O             1.00      3 P:y            10
                        (     103.939 eV)
   246     246      1.333      -0.331 au  O             1.00      1 P:z            10
                        (      -9.020 eV)
   247     247       --         0.347 au  O             1.00      2 P:z            10
                        (       9.437 eV)
   248     248       --         3.820 au  O             1.00      3 P:z            10
                        (     103.939 eV)
   249     249       --         1.071 au  O             1.00      1 D:z2           10
                        (      29.134 eV)
   250     250       --         1.071 au  O             1.00      1 D:x2-y2        10
                        (      29.134 eV)
   251     251       --         1.071 au  O             1.00      1 D:xy           10
                        (      29.134 eV)
   252     252       --         1.071 au  O             1.00      1 D:xz           10
                        (      29.134 eV)
   253     253       --         1.071 au  O             1.00      1 D:yz           10
                        (      29.134 eV)
   254     254       --         3.359 au  O             1.00      1 F:z3           10
                        (      91.410 eV)
   255     255       --         3.359 au  O             1.00      1 F:z            10
                        (      91.410 eV)
   256     256       --         3.359 au  O             1.00      1 F:xyz          10
                        (      91.410 eV)
   257     257       --         3.359 au  O             1.00      1 F:z2x          10
                        (      91.410 eV)
   258     258       --         3.359 au  O             1.00      1 F:z2y          10
                        (      91.410 eV)
   259     259       --         3.359 au  O             1.00      1 F:x            10
                        (      91.410 eV)
   260     260       --         3.359 au  O             1.00      1 F:y            10
                        (      91.410 eV)
   261     261      2.000     -18.941 au  O             1.00      1 S              11
                        (    -515.403 eV)
   262     262      2.000      -0.876 au  O             1.00      2 S              11
                        (     -23.838 eV)
   263     263       --         0.791 au  O             1.00      3 S              11
                        (      21.524 eV)
   264     264       --        13.422 au  O             1.00      4 S              11
                        (     365.226 eV)
   265     265       --       121.561 au  O             1.00      5 S              11
                        (    3307.838 eV)
   266     266      1.333      -0.331 au  O             1.00      1 P:x            11
                        (      -9.020 eV)
   267     267       --         0.347 au  O             1.00      2 P:x            11
                        (       9.437 eV)
   268     268       --         3.820 au  O             1.00      3 P:x            11
                        (     103.939 eV)
   269     269      1.333      -0.331 au  O             1.00      1 P:y            11
                        (      -9.020 eV)
   270     270       --         0.347 au  O             1.00      2 P:y            11
                        (       9.437 eV)
   271     271       --         3.820 au  O             1.00      3 P:y            11
                        (     103.939 eV)
   272     272      1.333      -0.331 au  O             1.00      1 P:z            11
                        (      -9.020 eV)
   273     273       --         0.347 au  O             1.00      2 P:z            11
                        (       9.437 eV)
   274     274       --         3.820 au  O             1.00      3 P:z            11
                        (     103.939 eV)
   275     275       --         1.071 au  O             1.00      1 D:z2           11
                        (      29.134 eV)
   276     276       --         1.071 au  O             1.00      1 D:x2-y2        11
                        (      29.134 eV)
   277     277       --         1.071 au  O             1.00      1 D:xy           11
                        (      29.134 eV)
   278     278       --         1.071 au  O             1.00      1 D:xz           11
                        (      29.134 eV)
   279     279       --         1.071 au  O             1.00      1 D:yz           11
                        (      29.134 eV)
   280     280       --         3.359 au  O             1.00      1 F:z3           11
                        (      91.410 eV)
   281     281       --         3.359 au  O             1.00      1 F:z            11
                        (      91.410 eV)
   282     282       --         3.359 au  O             1.00      1 F:xyz          11
                        (      91.410 eV)
   283     283       --         3.359 au  O             1.00      1 F:z2x          11
                        (      91.410 eV)
   284     284       --         3.359 au  O             1.00      1 F:z2y          11
                        (      91.410 eV)
   285     285       --         3.359 au  O             1.00      1 F:x            11
                        (      91.410 eV)
   286     286       --         3.359 au  O             1.00      1 F:y            11
                        (      91.410 eV)
   287     287      1.000      -0.240 au  H             1.00      1 S              12
                        (      -6.532 eV)
   288     288       --         0.088 au  H             1.00      2 S              12
                        (       2.394 eV)
   289     289       --         1.502 au  H             1.00      3 S              12
                        (      40.869 eV)
   290     290       --         0.406 au  H             1.00      1 P:x            12
                        (      11.051 eV)
   291     291       --         0.406 au  H             1.00      1 P:y            12
                        (      11.051 eV)
   292     292       --         0.406 au  H             1.00      1 P:z            12
                        (      11.051 eV)
   293     293       --         2.569 au  H             1.00      1 D:z2           12
                        (      69.917 eV)
   294     294       --         2.569 au  H             1.00      1 D:x2-y2        12
                        (      69.917 eV)
   295     295       --         2.569 au  H             1.00      1 D:xy           12
                        (      69.917 eV)
   296     296       --         2.569 au  H             1.00      1 D:xz           12
                        (      69.917 eV)
   297     297       --         2.569 au  H             1.00      1 D:yz           12
                        (      69.917 eV)
   298     298      1.000      -0.240 au  H             1.00      1 S              13
                        (      -6.532 eV)
   299     299       --         0.088 au  H             1.00      2 S              13
                        (       2.394 eV)
   300     300       --         1.502 au  H             1.00      3 S              13
                        (      40.869 eV)
   301     301       --         0.406 au  H             1.00      1 P:x            13
                        (      11.051 eV)
   302     302       --         0.406 au  H             1.00      1 P:y            13
                        (      11.051 eV)
   303     303       --         0.406 au  H             1.00      1 P:z            13
                        (      11.051 eV)
   304     304       --         2.569 au  H             1.00      1 D:z2           13
                        (      69.917 eV)
   305     305       --         2.569 au  H             1.00      1 D:x2-y2        13
                        (      69.917 eV)
   306     306       --         2.569 au  H             1.00      1 D:xy           13
                        (      69.917 eV)
   307     307       --         2.569 au  H             1.00      1 D:xz           13
                        (      69.917 eV)
   308     308       --         2.569 au  H             1.00      1 D:yz           13
                        (      69.917 eV)
   309     309      1.000      -0.240 au  H             1.00      1 S              14
                        (      -6.532 eV)
   310     310       --         0.088 au  H             1.00      2 S              14
                        (       2.394 eV)
   311     311       --         1.502 au  H             1.00      3 S              14
                        (      40.869 eV)
   312     312       --         0.406 au  H             1.00      1 P:x            14
                        (      11.051 eV)
   313     313       --         0.406 au  H             1.00      1 P:y            14
                        (      11.051 eV)
   314     314       --         0.406 au  H             1.00      1 P:z            14
                        (      11.051 eV)
   315     315       --         2.569 au  H             1.00      1 D:z2           14
                        (      69.917 eV)
   316     316       --         2.569 au  H             1.00      1 D:x2-y2        14
                        (      69.917 eV)
   317     317       --         2.569 au  H             1.00      1 D:xy           14
                        (      69.917 eV)
   318     318       --         2.569 au  H             1.00      1 D:xz           14
                        (      69.917 eV)
   319     319       --         2.569 au  H             1.00      1 D:yz           14
                        (      69.917 eV)
   320     320      1.000      -0.240 au  H             1.00      1 S              15
                        (      -6.532 eV)
   321     321       --         0.088 au  H             1.00      2 S              15
                        (       2.394 eV)
   322     322       --         1.502 au  H             1.00      3 S              15
                        (      40.869 eV)
   323     323       --         0.406 au  H             1.00      1 P:x            15
                        (      11.051 eV)
   324     324       --         0.406 au  H             1.00      1 P:y            15
                        (      11.051 eV)
   325     325       --         0.406 au  H             1.00      1 P:z            15
                        (      11.051 eV)
   326     326       --         2.569 au  H             1.00      1 D:z2           15
                        (      69.917 eV)
   327     327       --         2.569 au  H             1.00      1 D:x2-y2        15
                        (      69.917 eV)
   328     328       --         2.569 au  H             1.00      1 D:xy           15
                        (      69.917 eV)
   329     329       --         2.569 au  H             1.00      1 D:xz           15
                        (      69.917 eV)
   330     330       --         2.569 au  H             1.00      1 D:yz           15
                        (      69.917 eV)
   331     331      1.000      -0.240 au  H             1.00      1 S              16
                        (      -6.532 eV)
   332     332       --         0.088 au  H             1.00      2 S              16
                        (       2.394 eV)
   333     333       --         1.502 au  H             1.00      3 S              16
                        (      40.869 eV)
   334     334       --         0.406 au  H             1.00      1 P:x            16
                        (      11.051 eV)
   335     335       --         0.406 au  H             1.00      1 P:y            16
                        (      11.051 eV)
   336     336       --         0.406 au  H             1.00      1 P:z            16
                        (      11.051 eV)
   337     337       --         2.569 au  H             1.00      1 D:z2           16
                        (      69.917 eV)
   338     338       --         2.569 au  H             1.00      1 D:x2-y2        16
                        (      69.917 eV)
   339     339       --         2.569 au  H             1.00      1 D:xy           16
                        (      69.917 eV)
   340     340       --         2.569 au  H             1.00      1 D:xz           16
                        (      69.917 eV)
   341     341       --         2.569 au  H             1.00      1 D:yz           16
                        (      69.917 eV)
   342     342      1.000      -0.240 au  H             1.00      1 S              17
                        (      -6.532 eV)
   343     343       --         0.088 au  H             1.00      2 S              17
                        (       2.394 eV)
   344     344       --         1.502 au  H             1.00      3 S              17
                        (      40.869 eV)
   345     345       --         0.406 au  H             1.00      1 P:x            17
                        (      11.051 eV)
   346     346       --         0.406 au  H             1.00      1 P:y            17
                        (      11.051 eV)
   347     347       --         0.406 au  H             1.00      1 P:z            17
                        (      11.051 eV)
   348     348       --         2.569 au  H             1.00      1 D:z2           17
                        (      69.917 eV)
   349     349       --         2.569 au  H             1.00      1 D:x2-y2        17
                        (      69.917 eV)
   350     350       --         2.569 au  H             1.00      1 D:xy           17
                        (      69.917 eV)
   351     351       --         2.569 au  H             1.00      1 D:xz           17
                        (      69.917 eV)
   352     352       --         2.569 au  H             1.00      1 D:yz           17
                        (      69.917 eV)
   353     353      1.000      -0.240 au  H             1.00      1 S              18
                        (      -6.532 eV)
   354     354       --         0.088 au  H             1.00      2 S              18
                        (       2.394 eV)
   355     355       --         1.502 au  H             1.00      3 S              18
                        (      40.869 eV)
   356     356       --         0.406 au  H             1.00      1 P:x            18
                        (      11.051 eV)
   357     357       --         0.406 au  H             1.00      1 P:y            18
                        (      11.051 eV)
   358     358       --         0.406 au  H             1.00      1 P:z            18
                        (      11.051 eV)
   359     359       --         2.569 au  H             1.00      1 D:z2           18
                        (      69.917 eV)
   360     360       --         2.569 au  H             1.00      1 D:x2-y2        18
                        (      69.917 eV)
   361     361       --         2.569 au  H             1.00      1 D:xy           18
                        (      69.917 eV)
   362     362       --         2.569 au  H             1.00      1 D:xz           18
                        (      69.917 eV)
   363     363       --         2.569 au  H             1.00      1 D:yz           18
                        (      69.917 eV)



 ================================
 (Slater-type)  F U N C T I O N S  ***  (Basis and Fit)  ***
 ================================
  

 Atom Type    1  (C)
 ==============

 Valence Basis Sets:  10
 -----------------------
   1 S    7.680000
   1 S    5.000000
   2 S    1.280000
   2 S    2.100000
   2 S    4.600000
   2 P    0.820000
   2 P    1.480000
   2 P    2.940000
   3 D    2.200000
   4 F    3.300000

 Atom Type    2  (N)
 ==============

 Valence Basis Sets:  10
 -----------------------
   1 S    8.740000
   1 S    5.900000
   2 S    5.150000
   2 S    2.500000
   2 S    1.500000
   2 P    3.680000
   2 P    1.880000
   2 P    1.000000
   3 D    2.200000
   4 F    3.300000

 Atom Type    3  (O)
 ==============

 Valence Basis Sets:  10
 -----------------------
   1 S    9.800000
   1 S    6.800000
   2 S    7.580000
   2 S    2.880000
   2 S    1.720000
   2 P    4.080000
   2 P    2.080000
   2 P    1.120000
   3 D    2.000000
   4 F    3.000000

 Atom Type    4  (H)
 ==============

 Valence Basis Sets:   5
 -----------------------
   1 S    0.690000
   1 S    0.920000
   1 S    1.580000
   2 P    1.250000
   3 D    2.500000


 BAS: List of all Elementary Cartesian Basis Functions
 =====================================================

 The numbering in the list below (to the right of the function characteristics) is referred
 to in print-outs of MO eigenvectors and Mulliken populations in the BAS representation
 (as contrasted to the SFO representation).

 Notes:
 1. The functions are characterized by a polynomial prefactor (powers of x,y,z and r) and
    an exponential decay factor alpha.
 2. Since the basis sets are specific for an atom TYPE, the individual functions occur on
    all atoms of that type.
 3. The word 'Core' in the left margin signals that it is a Core Function (CF) : not a
    degree of freedom in the valence set, but only used to ensure orthogonalization of
    the other valence basis functions on the frozen Core Orbitals.


 (power of) X  Y  Z  R     Alpha  on Atom
            ==========     =====     ==========

 C                                    1    2    3    4    5
                                  ---------------------------------------------------------------------------
            0  0  0  0     7.680      1   31   61   91  121
            0  0  0  0     5.000      2   32   62   92  122
            0  0  0  1     1.280      3   33   63   93  123
            0  0  0  1     2.100      4   34   64   94  124
            0  0  0  1     4.600      5   35   65   95  125
            1  0  0  0     0.820      6   36   66   96  126
            0  1  0  0     0.820      7   37   67   97  127
            0  0  1  0     0.820      8   38   68   98  128
            1  0  0  0     1.480      9   39   69   99  129
            0  1  0  0     1.480     10   40   70  100  130
            0  0  1  0     1.480     11   41   71  101  131
            1  0  0  0     2.940     12   42   72  102  132
            0  1  0  0     2.940     13   43   73  103  133
            0  0  1  0     2.940     14   44   74  104  134
            2  0  0  0     2.200     15   45   75  105  135
            1  1  0  0     2.200     16   46   76  106  136
            1  0  1  0     2.200     17   47   77  107  137
            0  2  0  0     2.200     18   48   78  108  138
            0  1  1  0     2.200     19   49   79  109  139
            0  0  2  0     2.200     20   50   80  110  140
            3  0  0  0     3.300     21   51   81  111  141
            2  1  0  0     3.300     22   52   82  112  142
            2  0  1  0     3.300     23   53   83  113  143
            1  2  0  0     3.300     24   54   84  114  144
            1  1  1  0     3.300     25   55   85  115  145
            1  0  2  0     3.300     26   56   86  116  146
            0  3  0  0     3.300     27   57   87  117  147
            0  2  1  0     3.300     28   58   88  118  148
            0  1  2  0     3.300     29   59   89  119  149
            0  0  3  0     3.300     30   60   90  120  150

 N                                    6    7    8
                                  ---------------------------------------------------------------------------
            0  0  0  0     8.740    151  181  211
            0  0  0  0     5.900    152  182  212
            0  0  0  1     5.150    153  183  213
            0  0  0  1     2.500    154  184  214
            0  0  0  1     1.500    155  185  215
            1  0  0  0     3.680    156  186  216
            0  1  0  0     3.680    157  187  217
            0  0  1  0     3.680    158  188  218
            1  0  0  0     1.880    159  189  219
            0  1  0  0     1.880    160  190  220
            0  0  1  0     1.880    161  191  221
            1  0  0  0     1.000    162  192  222
            0  1  0  0     1.000    163  193  223
            0  0  1  0     1.000    164  194  224
            2  0  0  0     2.200    165  195  225
            1  1  0  0     2.200    166  196  226
            1  0  1  0     2.200    167  197  227
            0  2  0  0     2.200    168  198  228
            0  1  1  0     2.200    169  199  229
            0  0  2  0     2.200    170  200  230
            3  0  0  0     3.300    171  201  231
            2  1  0  0     3.300    172  202  232
            2  0  1  0     3.300    173  203  233
            1  2  0  0     3.300    174  204  234
            1  1  1  0     3.300    175  205  235
            1  0  2  0     3.300    176  206  236
            0  3  0  0     3.300    177  207  237
            0  2  1  0     3.300    178  208  238
            0  1  2  0     3.300    179  209  239
            0  0  3  0     3.300    180  210  240

 O                                    9   10   11
                                  ---------------------------------------------------------------------------
            0  0  0  0     9.800    241  271  301
            0  0  0  0     6.800    242  272  302
            0  0  0  1     7.580    243  273  303
            0  0  0  1     2.880    244  274  304
            0  0  0  1     1.720    245  275  305
            1  0  0  0     4.080    246  276  306
            0  1  0  0     4.080    247  277  307
            0  0  1  0     4.080    248  278  308
            1  0  0  0     2.080    249  279  309
            0  1  0  0     2.080    250  280  310
            0  0  1  0     2.080    251  281  311
            1  0  0  0     1.120    252  282  312
            0  1  0  0     1.120    253  283  313
            0  0  1  0     1.120    254  284  314
            2  0  0  0     2.000    255  285  315
            1  1  0  0     2.000    256  286  316
            1  0  1  0     2.000    257  287  317
            0  2  0  0     2.000    258  288  318
            0  1  1  0     2.000    259  289  319
            0  0  2  0     2.000    260  290  320
            3  0  0  0     3.000    261  291  321
            2  1  0  0     3.000    262  292  322
            2  0  1  0     3.000    263  293  323
            1  2  0  0     3.000    264  294  324
            1  1  1  0     3.000    265  295  325
            1  0  2  0     3.000    266  296  326
            0  3  0  0     3.000    267  297  327
            0  2  1  0     3.000    268  298  328
            0  1  2  0     3.000    269  299  329
            0  0  3  0     3.000    270  300  330

 H                                   12   13   14   15   16   17   18
                                  ---------------------------------------------------------------------------
            0  0  0  0     0.690    331  343  355  367  379  391  403
            0  0  0  0     0.920    332  344  356  368  380  392  404
            0  0  0  0     1.580    333  345  357  369  381  393  405
            1  0  0  0     1.250    334  346  358  370  382  394  406
            0  1  0  0     1.250    335  347  359  371  383  395  407
            0  0  1  0     1.250    336  348  360  372  384  396  408
            2  0  0  0     2.500    337  349  361  373  385  397  409
            1  1  0  0     2.500    338  350  362  374  386  398  410
            1  0  1  0     2.500    339  351  363  375  387  399  411
            0  2  0  0     2.500    340  352  364  376  388  400  412
            0  1  1  0     2.500    341  353  365  377  389  401  413
            0  0  2  0     2.500    342  354  366  378  390  402  414

 Total number of charge fitting functions (nprimf)      1274
 Total number of Cartesian basis functions (naos)        414
 Total number of Cartesian core functions  (ncos)          0

 ***************************************************************************************************



                                              ***********************
                                              *  T E C H N I C A L  *
                                              ***********************
  



 =============================================================
 P A R A L L E L I Z A T I O N  and  V E C T O R I Z A T I O N
 =============================================================
  
 Nr of parallel processes:                                1
 Maximum vector length in NumInt loops:                 128



 =====================
 S C F   U P D A T E S
 =====================
  
 Max. nr. of cycles:                               200
 Convergence criterion:                              0.0000010000
   secondary criterion:                              0.0010000000

 Mix parameter (when DIIS does not apply):           0.2000000000
 Mixed ADIIS+SDIIS will be used                  
    Max number of expansion vectors:                10
    Pure ADIIS when Max([F,P]) is above              0.1000000000
    Pure SDIIS when Max([F,P]) is below              0.0010000000
 Automatic ElectronSmearing (in case of problematic SCF convergence) disabled



 =================
 P R E C I S I O N  ***  (General: NumInt, NeglectFunctionTails, ...)  ***
 =================
  

 NumInt:           Target precision:                 4.0000000000
 -------           Initial precision:                4.0000000000
                   Min. precision (optimization):    4.0000000000

 Neglect Functions:          Basis functions:        0.1000000000E-05
 ------------------          Fit functions:          0.1000000000E-05



 ===========================
 L I N E A R   S C A L I N G
 ===========================
  

 Cut-off radii density fit:                        0.1000000000E-07
 Overlap cut-off criterion AO matrix elements:     0.1000000000E-05
 Cut-offs for Coulomb potential and fitted density:0.1000000000E-07
 Cut-off criterion for Coulomb multipole terms:    0.1000000000E-07
 Progressive Convergence parameter:                 0.000000000    
 ***************************************************************************************************



                                            ***************************
                                            *  C O M P U T A T I O N  *
                                            ***************************
  

 Number of elements of the density matrix on this node (used, total):     85905     85905



 ===========================================
 Numerical Integration : Fuzzy Cells (Becke)
 ===========================================
  
 Becke grid quality: NORMAL         
  
 Lebedev angular grid order:             min:  11 max:  23
 Nr. of radial points:                   min:  46 max:  52

 Total nr. of points:     117709
 Nr. of blocks:              920
 Block length:               128
 Nr. of dummy points:         51


 Test of Precision of the Numerical Integration Grid
 ===================================================

 Integral of the Total Core Density:                   0.00000000000000



 ========================
 Density Fitting (zlmFit)
 ========================
  
 ZlmFit Fit Quality: NORMAL         
  
 Max L-expansion:                        min:   6 max:   7
 Nr. of radial interpolation points:     min:  39 max:  54



 =====
 S C F  ***  ScaSCF  ***
 =====
  
 Initial density matrix is calculated as sum of fragments

 CYCLE    1
 SCF Error: norm([F,P])=      8.126528052169, max([F,P])=      1.483613532877
 orbitals (Q,E):
 ---------------
 A :32...51          ( 2.00    -0.5116)  ( 2.00    -0.4984)  ( 2.00    -0.4758)  ( 2.00    -0.4693)
                     ( 2.00    -0.4290)  ( 2.00    -0.4149)  ( 2.00    -0.4137)  ( 2.00    -0.3901)
                     ( 2.00    -0.3721)  ( 2.00    -0.3372)  ( 0.00    -0.2236)  ( 0.00    -0.1978)
                     ( 0.00    -0.1113)  ( 0.00    -0.0663)  ( 0.00    -0.0608)  ( 0.00    -0.0541)
                     ( 0.00    -0.0445)  ( 0.00    -0.0411)  ( 0.00    -0.0221)  ( 0.00    -0.0022)

 CYCLE    2
   MIX coefficients:  0.8000  0.2000
 SCF Error: norm([F,P])=      1.466442660432, max([F,P])=      0.225410514022
 orbitals (Q,E):
 ---------------
 A :32...42          ( 2.00    -0.4533)  ( 2.00    -0.4495)  ( 2.00    -0.4254)  ( 2.00    -0.4193)
                     ( 2.00    -0.3753)  ( 2.00    -0.3663)  ( 2.00    -0.3446)  ( 2.00    -0.3145)
                     ( 2.00    -0.3069)  ( 2.00    -0.2965)  ( 0.00    -0.2043)

 CYCLE    3
  SDIIS (wt  0.000): -0.4958  1.4958
 A-DIIS (wt  1.000):  0.0000  1.0000
  DIIS coefficients:  0.0000  1.0000
 SCF Error: norm([F,P])=      0.660226312452, max([F,P])=      0.096106748024
 orbitals (Q,E):
 ---------------
 A :32...42          ( 2.00    -0.3049)  ( 2.00    -0.2821)  ( 2.00    -0.2801)  ( 2.00    -0.2691)
                     ( 2.00    -0.2396)  ( 2.00    -0.2203)  ( 2.00    -0.1899)  ( 2.00    -0.1726)
                     ( 2.00    -0.1443)  ( 2.00    -0.1255)  ( 0.00    -0.0954)

 CYCLE    4
  SDIIS (wt  0.000):  0.0035  0.6524  0.3441
 A-DIIS (wt  1.000): -0.0000  0.7192  0.2808
  DIIS coefficients: -0.0000  0.7192  0.2808
 SCF Error: norm([F,P])=      1.207105732042, max([F,P])=      0.193592007268
 orbitals (Q,E):
 ---------------
 A :32...42          ( 2.00    -0.3572)  ( 2.00    -0.3287)  ( 2.00    -0.3232)  ( 2.00    -0.3130)
                     ( 2.00    -0.2808)  ( 2.00    -0.2769)  ( 2.00    -0.2421)  ( 2.00    -0.2063)
                     ( 2.00    -0.1923)  ( 2.00    -0.1890)  ( 0.00    -0.1082)

 CYCLE    5
  SDIIS (wt  0.027):  0.1071  0.2841  0.2580  0.3508
 A-DIIS (wt  0.973):  0.0000  0.2849  0.0831  0.6320
  DIIS coefficients:  0.0029  0.2849  0.0878  0.6244
 SCF Error: norm([F,P])=      0.444786804924, max([F,P])=      0.097311077100
 orbitals (Q,E):
 ---------------
 A :32...42          ( 2.00    -0.3657)  ( 2.00    -0.3647)  ( 2.00    -0.3467)  ( 2.00    -0.3198)
                     ( 2.00    -0.3135)  ( 2.00    -0.2649)  ( 2.00    -0.2482)  ( 2.00    -0.2444)
                     ( 2.00    -0.2303)  ( 2.00    -0.2217)  ( 0.00    -0.1324)

 CYCLE    6
  SDIIS (wt  0.000):  0.0064  0.2625  0.0781  0.4927  0.1603
 A-DIIS (wt  1.000):  0.0000  0.0291  0.0000  0.7416  0.2293
  DIIS coefficients:  0.0000  0.0291  0.0000  0.7416  0.2293
 SCF Error: norm([F,P])=      1.074221246364, max([F,P])=      0.332644505525
 orbitals (Q,E):
 ---------------
 A :32...42          ( 2.00    -0.3827)  ( 2.00    -0.3688)  ( 2.00    -0.3527)  ( 2.00    -0.3444)
                     ( 2.00    -0.3117)  ( 2.00    -0.2935)  ( 2.00    -0.2664)  ( 2.00    -0.2457)
                     ( 2.00    -0.2423)  ( 2.00    -0.2271)  ( 0.00    -0.1488)

 CYCLE    7
  SDIIS (wt  0.531):  0.0113  0.0977  0.0580  0.4042  0.0493  0.3795
 A-DIIS (wt  0.469):  0.0000  0.0000  0.0000  0.3447  0.0000  0.6553
  DIIS coefficients:  0.0060  0.0519  0.0308  0.3763  0.0262  0.5088
 SCF Error: norm([F,P])=      0.284331431677, max([F,P])=      0.047415207051
 orbitals (Q,E):
 ---------------
 A :32...42          ( 2.00    -0.3743)  ( 2.00    -0.3505)  ( 2.00    -0.3378)  ( 2.00    -0.3361)
                     ( 2.00    -0.2936)  ( 2.00    -0.2886)  ( 2.00    -0.2592)  ( 2.00    -0.2286)
                     ( 2.00    -0.2159)  ( 2.00    -0.2144)  ( 0.00    -0.1359)

 CYCLE    8
[...]
                                    1.83%     1 S              -6.532  1.00    17 H
                                    1.64%     1 P:z            -5.239  0.67     4 C
                                    1.47%     2 S               2.394  0.00    13 H
                                    1.44%     3 S              40.869  0.00    16 H
                                   -1.30%     3 S              10.158  0.00     3 C
                                    1.19%     2 P:x             4.589  0.00     2 C
                                    1.17%     1 P:z            -9.020  1.33    10 O
                                    1.10%     1 P:y            -5.239  0.67     1 C
                                   -1.07%     2 P:z             4.589  0.00     2 C
                                   -1.01%     2 P:y             4.589  0.00     3 C
       1.088  0.00    50 A         27.86%     1 S              -6.532  1.00    16 H
                                   18.56%     1 S              -6.532  1.00    17 H
                                  -17.21%     2 P:z             4.589  0.00     5 C
                                   11.17%     2 S               2.394  0.00    16 H
                                   10.67%     2 S               2.394  0.00    17 H
                                    7.22%     1 P:z            -5.239  0.67     2 C
                                   -6.75%     2 P:y             4.589  0.00     5 C
                                    6.57%     1 P:z            -5.239  0.67     3 C
                                    5.32%     1 P:z            -7.062  1.00     7 N
                                    4.32%     1 P:x            -5.239  0.67     5 C
                                    4.25%     1 P:z            -7.062  1.00     8 N
                                    3.48%     2 S               2.394  0.00    18 H
                                    3.06%     1 P:z            -5.239  0.67     5 C
                                    2.92%     1 P:z            -9.020  1.33     9 O
                                    2.74%     1 S              -6.532  1.00    18 H
                                    2.38%     1 S              -6.532  1.00    12 H
                                    2.23%     1 P:z            -5.239  0.67     4 C
                                    2.09%     1 P:y            -5.239  0.67     2 C
                                   -2.06%     2 P:x             4.589  0.00     5 C
                                    1.78%     3 S              40.869  0.00    16 H
                                   -1.32%     2 P:z             4.589  0.00     1 C
                                    1.21%     2 P:y             4.589  0.00     3 C
                                   -1.17%     2 P:z             7.649  0.00     8 N
                                   -1.12%     2 P:z             4.589  0.00     3 C
                                    1.09%     1 P:y            -7.062  1.00     7 N
                                    1.03%     1 P:y            -5.239  0.67     4 C
                                    1.03%     1 P:y            -5.239  0.67     3 C
       1.288  0.00    51 A         30.46%     1 S              -6.532  1.00    18 H
                                   26.94%     2 S               2.394  0.00    18 H
                                   24.77%     1 S              -6.532  1.00    17 H
                                   21.56%     2 S               2.394  0.00    17 H
                                  -13.37%     2 P:z             4.589  0.00     5 C
                                  -11.59%     2 P:y             4.589  0.00     5 C
                                    2.32%     3 S              40.869  0.00    18 H
                                    2.02%     3 S              40.869  0.00    17 H
                                    1.72%     2 P:z             4.589  0.00     3 C
                                    1.72%     2 P:y             4.589  0.00     3 C
                                    1.63%     1 P:z            -5.239  0.67     5 C
                                    1.32%     2 P:z             4.589  0.00     4 C
                                    1.32%     1 P:y            -5.239  0.67     5 C
                                    1.31%     1 P:z            -5.239  0.67     3 C
                                    1.20%     1 P:y            11.051  0.00    18 H
                                    1.06%     2 P:y             4.589  0.00     4 C
       1.334  0.00    52 A         36.94%     1 S              -6.532  1.00    13 H
                                  -20.97%     2 P:y             4.589  0.00     1 C
                                   15.15%     2 S               2.394  0.00    13 H
                                   12.38%     1 P:y            -5.239  0.67     1 C
                                   11.26%     1 S              -6.532  1.00    14 H
                                   10.17%     2 S               2.394  0.00    14 H
                                    9.81%     1 S              -6.532  1.00    12 H
                                   -5.75%     2 P:x             4.589  0.00     1 C
                                    5.70%     2 S               2.394  0.00    12 H
                                    5.62%     2 S               2.394  0.00    15 H
                                    3.66%     3 S              40.869  0.00    13 H
                                    3.16%     2 P:x             7.649  0.00     6 N
                                    2.96%     1 P:z            -5.239  0.67     1 C
                                    2.88%     1 S              -6.532  1.00    18 H
                                    2.70%     2 P:x             4.589  0.00     3 C
                                   -2.23%     2 P:y             4.589  0.00     5 C
                                   -1.96%     3 S              14.073  0.00     7 N
                                    1.85%     1 S              -6.532  1.00    15 H
                                   -1.81%     1 P:x            -5.239  0.67     1 C
                                   -1.69%     2 P:z             4.589  0.00     1 C
                                    1.54%     1 P:y            -5.239  0.67     5 C
                                   -1.49%     3 S              14.073  0.00     6 N
                                    1.22%     2 S               2.394  0.00    18 H
                                    1.15%     1 S              -6.532  1.00    16 H
                                    1.14%     1 P:x            -7.062  1.00     6 N
       1.704  0.00    53 A         28.14%     1 S              -6.532  1.00    12 H
                                   27.59%     2 S               2.394  0.00    12 H
                                   23.37%     2 S               2.394  0.00    14 H
                                   22.36%     1 S              -6.532  1.00    14 H
                                  -21.11%     2 P:z             4.589  0.00     1 C
                                    3.02%     1 P:z            -5.239  0.67     1 C
                                    2.84%     2 P:z             4.589  0.00     2 C
                                    2.25%     3 S              40.869  0.00    14 H
                                    2.13%     3 S              40.869  0.00    12 H
                                   -2.11%     2 P:y             4.589  0.00     1 C
                                    1.13%     2 P:y             4.589  0.00     2 C
                                    1.04%     1 P:z            11.051  0.00    12 H



 =======================================================================
 Electrostatic potential at the Nuclei due to electrons and other nuclei
 =======================================================================
  
         Atom                  Potential
         ----                  ---------
     1)   C                  14.74860250
     2)   N                  18.38009548
     3)   C                  14.67109867
     4)   O                  22.44239503
     5)   N                  18.37211398
     6)   N                  18.28827558
     7)   C                  14.71485747
     8)   C                  14.62533541
     9)   O                  22.39134634
    10)   O                  22.32685623
    11)   C                  14.71360478
    12)   H                   1.10839333
    13)   H                   1.09684626
    14)   H                   1.10920886
    15)   H                   1.01009274
    16)   H                   1.08242466
    17)   H                   1.08380320
    18)   H                   1.08497234
 Mulliken charges used for AMS results%charges...


    =====================
     CALCULATION RESULTS
    =====================

Energy (hartree)            -3.98288812


--------------
Atomic charges
--------------
  Index   Atom    Charge
      1      C    0.7854
      2      N   -0.1267
      3      C    0.6262
      4      O   -0.5987
      5      N   -0.2531
      6      N    0.0958
      7      C   -0.0147
      8      C    0.7326
      9      O   -0.5083
     10      O   -0.5084
     11      C    0.9374
     12      H   -0.1670
     13      H   -0.2299
     14      H   -0.1717
     15      H   -0.0331
     16      H   -0.2197
     17      H   -0.1744
     18      H   -0.1717


Dipole moment vector    (Debye):    -0.54385478   -2.75092454   -2.20510173
              magnitude (Debye):     3.56732918


-----------------------
Molecular orbitals info
-----------------------
n orbitals:              363
n spin:                    1

Note: only printing virtual orbitals with
      energy smaller than HOMO + 100. eV

HOMO (eV):              -5.7935
LUMO (eV):              -3.6565
HOMO-LUMO gap (eV):      2.1370

   Index   Energy (eV)    Occupation
     227       94.1836         0.000       
     226       93.8618         0.000       
     225       93.6555         0.000       
     224       92.4817         0.000       
     223       92.0805         0.000       
     222       91.8667         0.000       
     221       91.2654         0.000       
     220       90.9401         0.000       
     219       90.1685         0.000       
     218       89.2095         0.000       
     217       88.8212         0.000       
     216       88.2885         0.000       
     215       88.1686         0.000       
     214       86.7194         0.000       
     213       86.4461         0.000       
     212       84.7825         0.000       
     211       84.2668         0.000       
     210       82.9304         0.000       
     209       82.4822         0.000       
     208       82.3140         0.000       
     207       81.0941         0.000       
     206       79.3878         0.000       
     205       78.5231         0.000       
     204       78.1131         0.000       
     203       77.9277         0.000       
     202       77.7947         0.000       
     201       76.8679         0.000       
     200       76.8063         0.000       
     199       76.5307         0.000       
     198       76.0191         0.000       
     197       75.6610         0.000       
     196       75.5338         0.000       
     195       75.3741         0.000       
     194       74.1259         0.000       
     193       72.6828         0.000       
     192       72.0530         0.000       
     191       71.9741         0.000       
     190       70.3690         0.000       
     189       68.8327         0.000       
     188       68.1007         0.000       
     187       67.6311         0.000       
     186       66.2266         0.000       
     185       66.0582         0.000       
     184       65.4082         0.000       
     183       64.2789         0.000       
     182       63.4796         0.000       
     181       62.7264         0.000       
     180       62.1035         0.000       
     179       61.4432         0.000       
     178       61.2255         0.000       
     177       60.0200         0.000       
     176       59.8599         0.000       
     175       58.5186         0.000       
     174       57.7899         0.000       
     173       56.8615         0.000       
     172       56.4950         0.000       
     171       55.5402         0.000       
     170       55.2266         0.000       
     169       54.7776         0.000       
     168       54.3052         0.000       
     167       54.1766         0.000       
     166       53.3180         0.000       
     165       52.9700         0.000       
     164       51.2498         0.000       
     163       51.0149         0.000       
     162       49.8883         0.000       
     161       49.4158         0.000       
     160       48.5938         0.000       
     159       47.0861         0.000       
     158       46.6503         0.000       
     157       46.2998         0.000       
     156       45.7350         0.000       
     155       45.3740         0.000       
     154       45.1216         0.000       
     153       43.7602         0.000       
     152       43.5485         0.000       
     151       43.3090         0.000       
     150       42.6610         0.000       
     149       42.4549         0.000       
     148       41.7689         0.000       
     147       41.4486         0.000       
     146       41.0636         0.000       
     145       40.3282         0.000       
     144       40.0638         0.000       
     143       39.5109         0.000       
     142       39.2069         0.000       
     141       38.5887         0.000       
     140       37.8506         0.000       
     139       37.4633         0.000       
     138       37.2923         0.000       
     137       36.5646         0.000       
     136       36.0511         0.000       
     135       35.3587         0.000       
     134       34.8898         0.000       
     133       34.2591         0.000       
     132       34.0601         0.000       
     131       33.4406         0.000       
     130       33.1041         0.000       
     129       32.2238         0.000       
     128       31.6000         0.000       
     127       31.4876         0.000       
     126       31.2019         0.000       
     125       30.3114         0.000       
     124       30.0315         0.000       
     123       29.2956         0.000       
     122       28.4401         0.000       
     121       27.9294         0.000       
     120       27.5918         0.000       
     119       27.4982         0.000       
     118       27.2183         0.000       
     117       26.3703         0.000       
     116       26.1977         0.000       
     115       25.8879         0.000       
     114       25.6513         0.000       
     113       25.2231         0.000       
     112       25.1271         0.000       
     111       24.7013         0.000       
     110       24.5460         0.000       
     109       23.9725         0.000       
     108       23.2696         0.000       
     107       22.8788         0.000       
     106       22.1735         0.000       
     105       21.6581         0.000       
     104       20.2013         0.000       
     103       19.4886         0.000       
     102       18.9543         0.000       
     101       18.8719         0.000       
     100       18.7325         0.000       
      99       17.5427         0.000       
      98       17.1879         0.000       
      97       16.7419         0.000       
      96       16.3064         0.000       
      95       15.5915         0.000       
      94       15.2617         0.000       
      93       15.1600         0.000       
      92       13.9223         0.000       
      91       13.7785         0.000       
      90       13.1996         0.000       
      89       13.0365         0.000       
      88       12.5376         0.000       
      87       11.9513         0.000       
      86       11.4886         0.000       
      85       11.1525         0.000       
      84       11.0664         0.000       
      83       10.9280         0.000       
      82       10.8857         0.000       
      81       10.5408         0.000       
      80        9.8784         0.000       
      79        9.8182         0.000       
      78        9.2102         0.000       
      77        9.0569         0.000       
      76        8.9082         0.000       
      75        8.8237         0.000       
      74        8.7120         0.000       
      73        7.9419         0.000       
      72        7.4752         0.000       
      71        7.2756         0.000       
      70        7.1643         0.000       
      69        7.0709         0.000       
      68        6.5816         0.000       
      67        6.3906         0.000       
      66        6.1073         0.000       
      65        5.7647         0.000       
      64        5.5180         0.000       
      63        4.7814         0.000       
      62        4.7462         0.000       
      61        4.3623         0.000       
      60        4.1622         0.000       
      59        4.0325         0.000       
      58        3.6571         0.000       
      57        3.5517         0.000       
      56        3.3401         0.000       
      55        2.7600         0.000       
      54        2.6252         0.000       
      53        1.7039         0.000       
      52        1.3345         0.000       
      51        1.2881         0.000       
      50        1.0884         0.000       
      49        1.0411         0.000       
      48        0.7281         0.000       
      47        0.4741         0.000       
      46        0.0991         0.000       
      45       -0.2545         0.000       
      44       -0.3585         0.000       
      43       -2.6879         0.000       
      42       -3.6565         0.000 < LUMO
      41       -5.7935         2.000 < HOMO
      40       -5.9711         2.000       
      39       -6.2253         2.000       
      38       -7.0511         2.000       
      37       -7.8622         2.000       
      36       -8.0098         2.000       
      35       -9.1454         2.000       
      34       -9.1969         2.000       
      33       -9.5908         2.000       
      32      -10.1951         2.000       
      31      -10.3023         2.000       
      30      -10.9414         2.000       
      29      -10.9635         2.000       
      28      -11.2870         2.000       
      27      -11.8320         2.000       
      26      -11.8868         2.000       
      25      -12.1954         2.000       
      24      -12.5306         2.000       
      23      -13.8809         2.000       
      22      -14.2662         2.000       
      21      -15.3071         2.000       
      20      -16.3400         2.000       
      19      -18.0795         2.000       
      18      -19.1472         2.000       
      17      -21.8767         2.000       
      16      -23.1009         2.000       
      15      -25.4307         2.000       
      14      -26.0007         2.000       
      13      -27.0873         2.000       
      12      -28.4300         2.000       
      11     -270.9639         2.000       
      10     -271.9508         2.000       
       9     -272.2082         2.000       
       8     -273.1711         2.000       
       7     -274.4136         2.000       
       6     -382.4176         2.000       
       5     -382.9739         2.000       
       4     -385.1995         2.000       
       3     -510.3297         2.000       
       2     -511.7699         2.000       
       1     -513.3842         2.000       

AMS application finished. Exiting.
NORMAL TERMINATION
     Total cpu time:      68.90
  Total system time:       0.74
 Total elapsed time:      70.09
NORMAL TERMINATION
