
 *******************************************************************************
 *                                                                             *
 *  --------------------------------                                           *
 *   Amsterdam Modeling Suite (AMS)              2026.103                      *
 *  --------------------------------                                           *
 *                                               r260501 2026-05-01 873454b5   *
 *                                                                             *
 *                                                                             *
 *                              =================                              *
 *                              |               |                              *
 *                              |     A M S     |                              *
 *                              |               |                              *
 *                              =================                              *
 *                                                                             *
 *                                                                             *
 *   Online information and documentation:  https://www.scm.com/support/       *
 *   E-mail:  support@scm.com   info@scm.com                                   *
 *                                                                             *
 *   Scientific publications using AMS results must be properly referenced     *
 *   See the User Manuals (or the web site) for recommended citations          *
 *   The terms and conditions of the End User License Agreement apply to       *
 *   the use of AMS, https://www.scm.com/license-terms/                        *
 *                                                                             *
 **********************  x86_64_linux_intel / intelmpi  ************************
 
 Licensed to: Jong-June Jeon / University of Seoul 2026-05-13 16:10:32
 SCM User ID: u30731
  
 AMS 2026.103  RunTime: May30-2026 10:12:07  ShM Nodes: 1  Procs: 1

 AMS jobname: c5_fragB_opt
 AMS jobid  : 796430572

 Start   directory: /gpfs/home1/yeseo1ee/projects/eda-asm-prediction/adf_outputs/batch_000/dipolar_001152/
 Results directory: /gpfs/home1/yeseo1ee/projects/eda-asm-prediction/adf_outputs/batch_000/dipolar_001152/c5_fragB_opt.results/
 Scratch directory: /tmp/amstmp_c5_fragB_opt_kid0.796430572/

 RNG seed: -1246623144 599690999 1904838976 -1193172714 -552922962 1885766237 165549984 2111851144



                      ************************************************************************
                      *  ADF 2026.103  RunTime: May30-2026 10:12:08  ShM Nodes: 1  Procs: 1  *
                      ************************************************************************
  

       ***************************
       *  GEOMETRY OPTIMIZATION  *
       ***************************

Optimization Method                    Quasi Newton
Optimization Coordinates               Delocalized Coordinates
Optimize lattice                       F
 
 ------------------------------------------------------
 Convergence criteria (Hartree,Angstrom)
 ------------------------------------------------------
 Maximum gradient               0.000100000000
 Maximum rms gradient           0.000066666667
 Maximum step allowed           0.010000000000
 Maximum rms step allowed       0.006666666667
 Maximum energy change allowe   0.000270000000
 Maximum stress energy allowe   0.000500000000
 
Initial model Hessian                  Automatic Hessian
 
------------------------------------
Quasi-Newton Optimizer Parameters
------------------------------------
Hessian Update Method                  BFGS
Maximum number of steps                  200
First GDIIS cycle                          0
Maximum GDIIS vectors                      0
Trust radius (bohr)                        0.200000
Trust radius varies                        T
Constraints converged at all steps         T
Use projector                              T
 
 Rigid motions settings for: old optimizer
 Atomic rotations (x,y,z):     T T T
 Atomic translations (x,y,z):  T T T
 Tolerance:                  1.000000000000000E-006

--------
Geometry
--------
Formula: C10H14O3
Atoms
  Index Symbol   x (angstrom)   y (angstrom)   z (angstrom)
      1      C    -0.93762000    -1.11681000    -0.53438000
      2      C    -1.95019000    -1.40874000     0.49584000
      3      O    -3.11308000    -1.68931000     0.25374000
      4      O    -1.47071000    -1.34329000     1.74897000
      5      C    -2.39129000    -1.63677000     2.80676000
      6      C    -1.32804000    -1.13487000    -2.02136000
      7      C    -0.55812000    -0.01675000    -2.76473000
      8      C     0.91987000    -0.49370000    -2.66282000
      9      C     0.80625000    -1.87372000    -1.94017000
     10      C    -0.54920000    -2.38257000    -2.50413000
     11      C     0.36704000    -1.64093000    -0.51238000
     12      O     1.01052000    -1.96082000     0.57667000
     13      C     2.39770000    -2.32576000     0.52351000
     14      H    -2.78413000    -2.65936000     2.70981000
     15      H    -3.22815000    -0.92304000     2.79759000
     16      H    -1.82166000    -1.53771000     3.73823000
     17      H    -2.41137000    -1.13383000    -2.18006000
     18      H    -0.72434000     0.97295000    -2.32132000
     19      H    -0.88841000     0.02608000    -3.81284000
     20      H     1.36174000    -0.65952000    -3.65550000
     21      H     1.56475000     0.19759000    -2.10918000
     22      H     1.68486000    -2.51604000    -2.05321000
     23      H    -0.52942000    -2.50532000    -3.59797000
     24      H    -0.89180000    -3.31391000    -2.03036000
     25      H     2.68207000    -2.56246000     1.55491000
     26      H     2.97799000    -1.46472000     0.15976000
     27      H     2.54936000    -3.20305000    -0.11932000

Total System Charge              0.00000


----------------
ADF Engine Input
----------------
 
   Basis
     Type TZ2P
     Core None
   End
   XC
     GGA BLYP
     Dispersion GRIMME3 BJDAMP
   End
   Symmetry NOSYM
   NumericalQuality Normal
   Unrestricted No
   SCF
     Iterations 200
     Converge 1.0e-6
   End
   Save TAPE21
 

 Title: *** (NO TITLE) ***

 Using automatic Hessian for delocalized coordinates.
 *** GO1_GOStep1 ***

 Energy gradients wrt nuclear displacements
 ==========================================

     Atom      Cartesian (a.u./angstrom)
                 X         Y         Z
 ----------------------------------------
     1 C    -0.029429  0.053373  0.001952
     2 C    -0.006021 -0.025366  0.030751
     3 O     0.028044  0.005402  0.009920
     4 O    -0.036677 -0.008027 -0.028986
     5 C     0.014665  0.005538 -0.014682
     6 C     0.016060  0.000813 -0.007251
     7 C     0.005835 -0.014668  0.004595
     8 C    -0.016685 -0.002784  0.006959
     9 C    -0.008621  0.007188  0.002302
    10 C     0.002611  0.016104  0.015438
    11 C     0.077022 -0.046685  0.028591
    12 O    -0.023832  0.012713 -0.060128
    13 C    -0.010450 -0.000714  0.002136
    14 H     0.000514 -0.004502 -0.000505
    15 H    -0.001790  0.004549  0.000080
    16 H     0.000763  0.000128  0.004476
    17 H    -0.004492  0.001176 -0.000688
    18 H    -0.001441  0.003524 -0.000171
    19 H    -0.002319 -0.001493 -0.002480
    20 H    -0.000163 -0.004417 -0.002707
    21 H     0.000894 -0.001000  0.002048
    22 H     0.002738 -0.000920  0.003092
    23 H     0.000747  0.001582 -0.000754
    24 H    -0.001197 -0.005067  0.002380
    25 H     0.000708 -0.000995  0.004964
    26 H    -0.004198  0.006586  0.000200
    27 H    -0.003288 -0.002039 -0.001533
 ----------------------------------------
 
----------------------------------------------------------------------
Geometry Convergence after Step   1       (Hartree/Angstrom,Angstrom)
----------------------------------------------------------------------
current energy                               -5.65324516 Hartree
energy change                      -5.65324516     0.00027000    F
constrained gradient max            0.07702155     0.00010000    F
constrained gradient rms            0.01729084     0.00006667    F
gradient max                        0.07702155
gradient rms                        0.01729084
cart. step max                      0.06148949     0.01000000    F
cart. step rms                      0.02462713     0.00666667    F
 

--------
Geometry
--------
Formula: C10H14O3
Atoms
  Index Symbol   x (angstrom)   y (angstrom)   z (angstrom)
      1      C    -0.95059715    -1.16583655    -0.54004780
      2      C    -1.97188414    -1.40568870     0.49118841
      3      O    -3.15142877    -1.66723244     0.24404129
      4      O    -1.47530876    -1.33216018     1.75949973
      5      C    -2.40989616    -1.60589506     2.82215155
      6      C    -1.33376882    -1.17113913    -2.03126507
      7      C    -0.56476068    -0.02100698    -2.73950393
      8      C     0.92128765    -0.48359756    -2.63720621
      9      C     0.80205311    -1.88365203    -1.94298384
     10      C    -0.54067857    -2.40525134    -2.54015288
     11      C     0.34787901    -1.66010294    -0.50739134
     12      O     1.03053634    -1.97372656     0.59709420
     13      C     2.42702438    -2.32801009     0.50146975
     14      H    -2.81858533    -2.62084145     2.73413503
     15      H    -3.23763568    -0.88508350     2.80570258
     16      H    -1.83929518    -1.50644230     3.75050135
     17      H    -2.41378127    -1.17198198    -2.19666465
     18      H    -0.74356655     0.95173528    -2.26846943
     19      H    -0.88240462     0.05102231    -3.78832605
     20      H     1.37729394    -0.61253325    -3.62725999
     21      H     1.55052826     0.20210283    -2.06006246
     22      H     1.68844965    -2.51252298    -2.05895833
     23      H    -0.50890494    -2.50980019    -3.63530060
     24      H    -0.87860947    -3.34564530    -2.08809347
     25      H     2.74355949    -2.55224936     1.52351083
     26      H     3.00499800    -1.47916464     0.11076958
     27      H     2.57211624    -3.21167590    -0.13231826

Total System Charge              0.00000

 *** GO1_GOStep2 ***

 Energy gradients wrt nuclear displacements
 ==========================================

     Atom      Cartesian (a.u./angstrom)
                 X         Y         Z
 ----------------------------------------
     1 C    -0.013751  0.047773 -0.000669
     2 C     0.012881 -0.015159  0.017452
     3 O    -0.008900 -0.004036 -0.003811
     4 O    -0.014730 -0.003328 -0.006389
     5 C     0.009459  0.003290 -0.008541
     6 C     0.011628 -0.002483 -0.003729
     7 C     0.004457 -0.010661  0.004231
     8 C    -0.008659  0.000344  0.003639
     9 C    -0.009816  0.005470  0.001224
    10 C    -0.002504  0.003536  0.005502
    11 C     0.033391 -0.021702  0.007600
    12 O    -0.006709  0.000175 -0.021475
    13 C    -0.003151 -0.000484  0.003706
    14 H    -0.000257 -0.002004  0.000588
    15 H    -0.001002  0.001890  0.000630
    16 H    -0.000092 -0.000039  0.002403
    17 H    -0.001864  0.000717 -0.000784
    18 H    -0.000479  0.002035 -0.000771
    19 H    -0.001073 -0.001091 -0.001216
    20 H     0.000232 -0.002194 -0.001354
    21 H     0.000751 -0.000401  0.000673
    22 H     0.001605  0.000058  0.001174
    23 H     0.000561 -0.000669 -0.001620
    24 H    -0.001076 -0.002486  0.000116
    25 H     0.001116 -0.000692  0.001369
    26 H    -0.001057  0.002740  0.000551
    27 H    -0.000960 -0.000599 -0.000500
 ----------------------------------------

 dE(predicted):    -0.51894E-02, dE(actual):    -0.56070E-02, Trust radius:    0.400000, all in a.u.
 
----------------------------------------------------------------------
Geometry Convergence after Step   2       (Hartree/Angstrom,Angstrom)
----------------------------------------------------------------------
current energy                               -5.65885215 Hartree
energy change                      -0.00560699     0.00027000    F
constrained gradient max            0.04776234     0.00010000    F
constrained gradient rms            0.00898218     0.00006667    F
gradient max                        0.04776234
gradient rms                        0.00898218
cart. step max                      0.12461614     0.01000000    F
cart. step rms                      0.04947315     0.00666667    F
 

--------
Geometry
--------
Formula: C10H14O3
Atoms
  Index Symbol   x (angstrom)   y (angstrom)   z (angstrom)
      1      C    -0.96564601    -1.29045269    -0.54523709
      2      C    -1.98976038    -1.42759689     0.49338612
      3      O    -3.18349048    -1.61071618     0.26880030
      4      O    -1.47411893    -1.33822071     1.76824819
      5      C    -2.44348405    -1.53631485     2.82933292
      6      C    -1.34074414    -1.24253430    -2.03894807
      7      C    -0.58853484    -0.03175012    -2.67878455
      8      C     0.91345980    -0.46257555    -2.58190723
      9      C     0.82255748    -1.89920057    -1.94800898
     10      C    -0.49877605    -2.43138788    -2.59045013
     11      C     0.33328432    -1.72399718    -0.50762664
     12      O     1.05353928    -2.00014838     0.60796245
     13      C     2.45312528    -2.33983025     0.44682879
     14      H    -2.90163348    -2.52908911     2.75959531
     15      H    -3.23337461    -0.77875616     2.77899882
     16      H    -1.87771056    -1.43977686     3.75848720
     17      H    -2.41703416    -1.25816728    -2.21367509
     18      H    -0.79672532     0.90502502    -2.15384493
     19      H    -0.89210246     0.09434950    -3.72510132
     20      H     1.38640044    -0.52125024    -3.56885440
     21      H     1.51217943     0.21331926    -1.96328438
     22      H     1.72778214    -2.49614434    -2.07532907
     23      H    -0.45080280    -2.48922388    -3.68693590
     24      H    -0.81437516    -3.39571318    -2.18123459
     25      H     2.82283806    -2.51529525     1.45838137
     26      H     3.00769420    -1.51180262    -0.01232200
     27      H     2.58007297    -3.24912931    -0.15241708

Total System Charge              0.00000

 *** GO1_GOStep3 ***

 Energy gradients wrt nuclear displacements
 ==========================================

     Atom      Cartesian (a.u./angstrom)
                 X         Y         Z
 ----------------------------------------
     1 C     0.004905  0.031262  0.002737
     2 C     0.000643 -0.016130  0.001828
     3 O    -0.001320 -0.001034 -0.000363
     4 O    -0.001671  0.001943  0.001491
     5 C     0.002039  0.000542 -0.003110
     6 C     0.000618 -0.001795 -0.003458
     7 C     0.001594 -0.004409  0.002163
     8 C    -0.002572  0.000001  0.000083
     9 C    -0.000534 -0.001110  0.000752
    10 C    -0.003305 -0.002639  0.001016
    11 C    -0.003075 -0.003892 -0.004052
    12 O    -0.000021 -0.004619  0.002708
    13 C     0.000836  0.000787 -0.000433
    14 H    -0.000448  0.000137  0.000624
    15 H    -0.000234 -0.000201  0.000573
    16 H    -0.000559 -0.000052  0.000121
    17 H     0.000135  0.001611  0.000239
    18 H    -0.000214  0.000238 -0.001074
    19 H     0.000025 -0.000472  0.000103
    20 H     0.000558 -0.000051  0.000239
    21 H     0.000122 -0.000508 -0.000093
    22 H     0.001705  0.000816  0.000335
    23 H     0.000219 -0.001242 -0.000688
    24 H    -0.000240  0.000541 -0.000707
    25 H    -0.000377 -0.000268 -0.001075
    26 H     0.000545 -0.000213  0.000344
    27 H     0.000624  0.000756 -0.000304
 ----------------------------------------

 dE(predicted):    -0.43338E-02, dE(actual):    -0.45667E-02, Trust radius:    0.800000, all in a.u.
 
----------------------------------------------------------------------
Geometry Convergence after Step   3       (Hartree/Angstrom,Angstrom)
----------------------------------------------------------------------
current energy                               -5.66341883 Hartree
energy change                      -0.00456668     0.00027000    F
constrained gradient max            0.03124783     0.00010000    F
constrained gradient rms            0.00423866     0.00006667    F
gradient max                        0.03124783
gradient rms                        0.00423866
cart. step max                      0.17949961     0.01000000    F
cart. step rms                      0.08255009     0.00666667    F
 

--------
Geometry
--------
Formula: C10H14O3
Atoms
  Index Symbol   x (angstrom)   y (angstrom)   z (angstrom)
      1      C    -0.98853712    -1.46012016    -0.57495370
      2      C    -2.00465734    -1.38768204     0.46819493
      3      O    -3.21327240    -1.43987123     0.27035308
      4      O    -1.44707623    -1.39535498     1.74000062
      5      C    -2.41923372    -1.47035300     2.82499444
      6      C    -1.35175826    -1.35620433    -2.06975269
      7      C    -0.66027692    -0.05547167    -2.61513245
      8      C     0.86701646    -0.40910023    -2.51757894
      9      C     0.85285659    -1.88797850    -1.96594927
     10      C    -0.41925044    -2.45314046    -2.67128079
     11      C     0.32395102    -1.80464943    -0.52527827
     12      O     1.06694953    -1.97449478     0.61120279
     13      C     2.45003654    -2.38654313     0.45535969
     14      H    -3.01504278    -2.38466760     2.74579148
     15      H    -3.09061946    -0.60669363     2.79971189
     16      H    -1.82203573    -1.47349936     3.73806542
     17      H    -2.42168466    -1.42430455    -2.26273447
     18      H    -0.92935924     0.82371143    -2.02404407
     19      H    -0.95238083     0.13141413    -3.65475403
     20      H     1.35428630    -0.37430947    -3.49747260
     21      H     1.41276078     0.26452013    -1.84955612
     22      H     1.79066027    -2.42425100    -2.11088587
     23      H    -0.34786305    -2.43568703    -3.76618530
     24      H    -0.68087995    -3.45717572    -2.32751302
     25      H     2.85898659    -2.39166275     1.46677996
     26      H     3.00947967    -1.67955006    -0.16840524
     27      H     2.52156440    -3.39326061     0.02708253

Total System Charge              0.00000

 *** GO1_GOStep4 ***

 Energy gradients wrt nuclear displacements
 ==========================================

     Atom      Cartesian (a.u./angstrom)
                 X         Y         Z
 ----------------------------------------
     1 C     0.016651  0.006296  0.012339
     2 C    -0.009341  0.018124 -0.011188
     3 O     0.003714 -0.011535  0.000154
     4 O     0.009335 -0.005147  0.003277
     5 C    -0.003966 -0.001362  0.004486
     6 C    -0.008735 -0.002441 -0.004528
     7 C    -0.000788  0.002134  0.000731
     8 C     0.001822 -0.001309 -0.003357
     9 C     0.005062 -0.001999 -0.000080
    10 C     0.000001 -0.005126 -0.004699
    11 C    -0.023157  0.001203 -0.012055
    12 O     0.003572 -0.003218  0.016087
    13 C     0.003284 -0.001059 -0.000549
    14 H     0.000385  0.001605  0.000385
    15 H     0.000506 -0.001160 -0.000356
    16 H    -0.000192 -0.000190 -0.001249
    17 H     0.000859  0.001579  0.001199
    18 H     0.000166 -0.000621 -0.000936
    19 H     0.000554 -0.000176  0.000594
    20 H    -0.000024  0.001737  0.001201
    21 H    -0.000419 -0.000205 -0.000350
    22 H    -0.000481  0.001956 -0.000384
    23 H     0.000022 -0.001365 -0.000104
    24 H     0.000214  0.002167 -0.000103
    25 H    -0.000776 -0.000266 -0.001046
    26 H     0.000030 -0.001014 -0.000381
    27 H     0.001704  0.001396  0.000912
 ----------------------------------------

 dE(predicted):    -0.35753E-02, dE(actual):    -0.39041E-02, Trust radius:    1.000000, all in a.u.
 
----------------------------------------------------------------------
Geometry Convergence after Step   4       (Hartree/Angstrom,Angstrom)
----------------------------------------------------------------------
current energy                               -5.66732298 Hartree
energy change                      -0.00390414     0.00027000    F
constrained gradient max            0.02316321     0.00010000    F
constrained gradient rms            0.00559539     0.00006667    F
gradient max                        0.02316321
gradient rms                        0.00559539
cart. step max                      0.20450560     0.01000000    F
cart. step rms                      0.08400495     0.00666667    F
 

--------
Geometry
--------
Formula: C10H14O3
Atoms
  Index Symbol   x (angstrom)   y (angstrom)   z (angstrom)
      1      C    -0.99522734    -1.65820483    -0.58865087
      2      C    -2.01026565    -1.51670170     0.44493159
      3      O    -3.20876862    -1.35868232     0.23556297
      4      O    -1.45194534    -1.47083893     1.71974974
      5      C    -2.42498810    -1.33451259     2.80170270
      6      C    -1.35306520    -1.46383433    -2.07639405
      7      C    -0.73211489    -0.08285036    -2.50871935
      8      C     0.81322176    -0.36160479    -2.42436542
      9      C     0.87671733    -1.87932811    -1.98564691
     10      C    -0.35223942    -2.45473855    -2.74723494
     11      C     0.33641135    -1.91648818    -0.54693476
     12      O     1.09438760    -2.03654421     0.58870268
     13      C     2.47992334    -2.43952073     0.43006209
     14      H    -3.11895552    -2.18016200     2.79920600
     15      H    -2.99388891    -0.40682018     2.69098971
     16      H    -1.82718231    -1.32173658     3.71408430
     17      H    -2.41526942    -1.57879889    -2.28761622
     18      H    -1.05273615     0.72551804    -1.84659997
     19      H    -1.02730854     0.17551723    -3.53184990
     20      H     1.30069089    -0.22623860    -3.39513902
     21      H     1.31746887     0.28931745    -1.70307144
     22      H     1.84163355    -2.35335862    -2.16178695
     23      H    -0.27337000    -2.34296245    -3.83519159
     24      H    -0.55862170    -3.49625938    -2.48703509
     25      H     2.90754702    -2.38320907     1.43249804
     26      H     3.02067286    -1.76454604    -0.24310057
     27      H     2.55189252    -3.46879125     0.05790720

Total System Charge              0.00000

 *** GO1_GOStep5 ***

 Energy gradients wrt nuclear displacements
 ==========================================

     Atom      Cartesian (a.u./angstrom)
                 X         Y         Z
 ----------------------------------------
     1 C     0.018536  0.008274  0.016662
     2 C    -0.011446 -0.023529 -0.015195
     3 O     0.000449  0.006688 -0.000865
     4 O     0.012643  0.007433  0.003953
     5 C    -0.005780  0.001129  0.007172
     6 C    -0.009540  0.000582 -0.003817
     7 C    -0.002128  0.004689 -0.000832
     8 C     0.003295 -0.001903 -0.003490
     9 C     0.004699 -0.003585 -0.000601
    10 C     0.002387 -0.004249 -0.006592
    11 C    -0.023946  0.002275 -0.014103
    12 O     0.006333 -0.001071  0.018165
    13 C     0.003135 -0.001147 -0.001003
    14 H     0.000870  0.001240 -0.000625
    15 H     0.000405 -0.001673  0.000021
    16 H     0.000159 -0.000063 -0.001577
    17 H     0.000785  0.000591  0.001710
    18 H     0.000215 -0.000594 -0.000562
    19 H     0.000965  0.000232  0.000473
    20 H    -0.000535  0.001636  0.001469
    21 H    -0.000621  0.000165 -0.000343
    22 H    -0.001567  0.001982 -0.000671
    23 H    -0.000152 -0.000799  0.000437
    24 H     0.000253  0.001976  0.000500
    25 H    -0.000689 -0.000079 -0.000710
    26 H    -0.000096 -0.001272 -0.000639
    27 H     0.001372  0.001072  0.001063
 ----------------------------------------

 dE(predicted):    -0.44562E-02, dE(actual):    -0.13235E-02, Trust radius:    1.000000, all in a.u.
 
----------------------------------------------------------------------
Geometry Convergence after Step   5       (Hartree/Angstrom,Angstrom)
----------------------------------------------------------------------
current energy                               -5.66864646 Hartree
energy change                      -0.00132349     0.00027000    F
constrained gradient max            0.02395358     0.00010000    F
constrained gradient rms            0.00650693     0.00006667    F
gradient max                        0.02395358
gradient rms                        0.00650693
cart. step max                      0.16454867     0.01000000    F
cart. step rms                      0.03837217     0.00666667    F
 

--------
Geometry
--------
Formula: C10H14O3
Atoms
  Index Symbol   x (angstrom)   y (angstrom)   z (angstrom)
      1      C    -1.01054609    -1.68323536    -0.59382697
      2      C    -1.99841850    -1.44973335     0.45256495
      3      O    -3.18224389    -1.19413365     0.25205748
      4      O    -1.46212671    -1.54350538     1.72777631
      5      C    -2.43155431    -1.36592702     2.80211973
      6      C    -1.35487683    -1.48294754    -2.08100169
      7      C    -0.72712203    -0.10323525    -2.50350672
      8      C     0.81581007    -0.38408903    -2.41195148
      9      C     0.87108504    -1.90272263    -1.98008876
     10      C    -0.35487430    -2.47244667    -2.74475616
     11      C     0.33087338    -1.93587131    -0.54666083
     12      O     1.09245413    -2.01216822     0.57706159
     13      C     2.48306449    -2.38559937     0.41481701
     14      H    -3.21458985    -2.12877604     2.73964942
     15      H    -2.89230108    -0.37457960     2.74272928
     16      H    -1.85476907    -1.47403632     3.72266172
     17      H    -2.41538683    -1.59647268    -2.30507391
     18      H    -1.05031332     0.70253743    -1.83845571
     19      H    -1.01846236     0.15973239    -3.52704629
     20      H     1.30726543    -0.25550502    -3.38255796
     21      H     1.32185108     0.26358320    -1.68850438
     22      H     1.83473582    -2.38335172    -2.15280874
     23      H    -0.26941987    -2.35256495    -3.83147276
     24      H    -0.56554488    -3.51664732    -2.49332475
     25      H     2.91002242    -2.34325201     1.41899260
     26      H     3.01250527    -1.68548614    -0.24192733
     27      H     2.56750279    -3.40594643     0.01859436

Total System Charge              0.00000

 *** GO1_GOStep6 ***

 Energy gradients wrt nuclear displacements
 ==========================================

     Atom      Cartesian (a.u./angstrom)
                 X         Y         Z
 ----------------------------------------
     1 C     0.003958  0.000189  0.007674
     2 C    -0.005050 -0.000769 -0.008049
     3 O     0.000651 -0.000816  0.002327
     4 O     0.004675  0.001250  0.003172
     5 C    -0.003842  0.000090  0.003934
     6 C    -0.004753  0.001355 -0.005241
     7 C    -0.000458  0.001748 -0.000600
     8 C     0.002505 -0.001013 -0.000249
     9 C     0.001814  0.000313 -0.000581
    10 C     0.001826 -0.002154 -0.003037
    11 C    -0.005809 -0.002093 -0.005963
    12 O     0.003286 -0.000321  0.006906
    13 C     0.000660  0.001602 -0.001833
    14 H     0.000491  0.000164 -0.000363
    15 H     0.000233 -0.000301 -0.000423
    16 H     0.000171 -0.000099 -0.000622
    17 H     0.000313 -0.000266  0.001419
    18 H     0.000251 -0.000107  0.000210
    19 H     0.000430 -0.000049  0.000099
    20 H    -0.000215  0.000423  0.000523
    21 H    -0.000179  0.000393  0.000073
    22 H    -0.000486  0.000807 -0.000252
    23 H     0.000178 -0.000061  0.000490
    24 H    -0.000335  0.000329  0.000517
    25 H    -0.000037  0.000345  0.000061
    26 H     0.000028 -0.000684 -0.000220
    27 H    -0.000307 -0.000278  0.000028
 ----------------------------------------

 dE(predicted):    -0.11181E-02, dE(actual):    -0.14364E-02, Trust radius:    1.000000, all in a.u.
 
----------------------------------------------------------------------
Geometry Convergence after Step   6       (Hartree/Angstrom,Angstrom)
----------------------------------------------------------------------
current energy                               -5.67008286 Hartree
energy change                      -0.00143639     0.00027000    F
constrained gradient max            0.00806090     0.00010000    F
constrained gradient rms            0.00239571     0.00006667    F
gradient max                        0.00806090
gradient rms                        0.00239571
cart. step max                      0.13895993     0.01000000    F
cart. step rms                      0.03501843     0.00666667    F
 

--------
Geometry
--------
Formula: C10H14O3
Atoms
  Index Symbol   x (angstrom)   y (angstrom)   z (angstrom)
      1      C    -1.02260089    -1.68932519    -0.61065048
      2      C    -1.98440746    -1.41920480     0.45034035
      3      O    -3.14438777    -1.06183901     0.26027591
      4      O    -1.46102187    -1.62314578     1.71208399
      5      C    -2.39824427    -1.39402465     2.80012607
      6      C    -1.35970083    -1.49718451    -2.09542752
      7      C    -0.74135929    -0.11636076    -2.52151503
      8      C     0.80151637    -0.38526658    -2.42212801
      9      C     0.86753312    -1.90001826    -1.97944594
     10      C    -0.35097397    -2.48050422    -2.74675196
     11      C     0.32329634    -1.92941835    -0.55052211
     12      O     1.06891645    -1.99800284     0.57587241
     13      C     2.46377908    -2.36537035     0.44825855
     14      H    -3.25822067    -2.06738289     2.71378984
     15      H    -2.75334115    -0.35795946     2.79131857
     16      H    -1.83255979    -1.60266753     3.71087788
     17      H    -2.41753884    -1.61887911    -2.33069381
     18      H    -1.07466010     0.69014562    -1.86202379
     19      H    -1.03289845     0.13839072    -3.54738601
     20      H     1.29520005    -0.26425600    -3.39325080
     21      H     1.30249591     0.27093972    -1.70294532
     22      H     1.83467148    -2.37805453    -2.14536053
     23      H    -0.26061534    -2.36136663    -3.83354136
     24      H    -0.55452765    -3.52693100    -2.49667780
     25      H     2.85698018    -2.36080858     1.46715610
     26      H     3.01326041    -1.63830093    -0.16164746
     27      H     2.56402895    -3.36958411     0.01592826

Total System Charge              0.00000

 *** GO1_GOStep7 ***

 Energy gradients wrt nuclear displacements
 ==========================================

     Atom      Cartesian (a.u./angstrom)
                 X         Y         Z
 ----------------------------------------
     1 C    -0.002607 -0.000916 -0.000911
     2 C     0.001033  0.002605  0.001399
     3 O     0.000556 -0.001146 -0.000100
     4 O     0.002134 -0.000774 -0.000178
     5 C    -0.000878  0.000684  0.000895
     6 C    -0.001071 -0.000053 -0.004954
     7 C     0.000361 -0.000150  0.000060
     8 C     0.000242 -0.001198  0.001074
     9 C    -0.001048  0.001753  0.000154
    10 C     0.000609  0.000296 -0.000270
    11 C     0.001731  0.000507  0.002063
    12 O    -0.000927 -0.000618 -0.001205
    13 C     0.000307  0.001007  0.000575
    14 H     0.000023 -0.000342 -0.000240
    15 H     0.000275 -0.000183 -0.000065
    16 H     0.000266 -0.000181 -0.000073
    17 H    -0.000008 -0.000325  0.000635
    18 H     0.000135  0.000200  0.000332
    19 H    -0.000206 -0.000263 -0.000034
    20 H    -0.000077 -0.000134 -0.000175
    21 H    -0.000105  0.000133  0.000207
    22 H    -0.000303 -0.000270 -0.000100
    23 H     0.000027  0.000241  0.000222
    24 H    -0.000310 -0.000270  0.000203
    25 H     0.000277  0.000266  0.000158
    26 H    -0.000046 -0.000284  0.000507
    27 H    -0.000391 -0.000585 -0.000179
 ----------------------------------------

 dE(predicted):    -0.33818E-03, dE(actual):    -0.30835E-03, Trust radius:    1.000000, all in a.u.
 
----------------------------------------------------------------------
Geometry Convergence after Step   7       (Hartree/Angstrom,Angstrom)
----------------------------------------------------------------------
current energy                               -5.67039121 Hartree
energy change                      -0.00030835     0.00027000    F
constrained gradient max            0.00496414     0.00010000    F
constrained gradient rms            0.00096104     0.00006667    F
gradient max                        0.00496414
gradient rms                        0.00096104
cart. step max                      0.07433040     0.01000000    F
cart. step rms                      0.02145613     0.00666667    F
 

--------
Geometry
--------
Formula: C10H14O3
Atoms
  Index Symbol   x (angstrom)   y (angstrom)   z (angstrom)
      1      C    -1.00191361    -1.69344959    -0.58877550
      2      C    -1.97949123    -1.41450451     0.45547743
      3      O    -3.12691663    -1.02909970     0.24176880
      4      O    -1.49334681    -1.64557286     1.72581814
      5      C    -2.44472937    -1.39109145     2.79437975
      6      C    -1.35263717    -1.50070086    -2.06773208
      7      C    -0.74400181    -0.11944098    -2.50315720
      8      C     0.80025126    -0.38833864    -2.42543442
      9      C     0.87348956    -1.90360888    -1.98002030
     10      C    -0.35254712    -2.48434337    -2.73095724
     11      C     0.34567341    -1.93108952    -0.54465524
     12      O     1.10557232    -2.00058083     0.57081638
     13      C     2.49936453    -2.36342708     0.42090689
     14      H    -3.32556040    -2.03374673     2.68685857
     15      H    -2.76476589    -0.34347625     2.78500540
     16      H    -1.90689018    -1.62313477     3.71635251
     17      H    -2.41228750    -1.62418591    -2.29455128
     18      H    -1.07067581     0.68706274    -1.84055754
     19      H    -1.04953446     0.13439713    -3.52521155
     20      H     1.28026830    -0.26967682    -3.40374937
     21      H     1.31174366     0.26905626    -1.71496253
     22      H     1.83910171    -2.38151175    -2.15642389
     23      H    -0.27656448    -2.36592709    -3.81910202
     24      H    -0.55104667    -3.53098452    -2.47823121
     25      H     2.90426989    -2.37555586     1.43501449
     26      H     3.03963489    -1.62409120    -0.18300523
     27      H     2.59815961    -3.35935697    -0.02981175

Total System Charge              0.00000

 *** GO1_GOStep8 ***

 Energy gradients wrt nuclear displacements
 ==========================================

     Atom      Cartesian (a.u./angstrom)
                 X         Y         Z
 ----------------------------------------
     1 C    -0.000527 -0.002194  0.002183
     2 C    -0.000052  0.003153 -0.000633
     3 O    -0.000856 -0.000810 -0.000395
     4 O    -0.000580 -0.000594 -0.000042
     5 C    -0.000010  0.000551 -0.000405
     6 C     0.000305  0.001220 -0.000409
     7 C    -0.000753  0.000625  0.000425
     8 C    -0.000230 -0.001244  0.000529
     9 C    -0.001119  0.000166  0.000223
    10 C     0.000733  0.000255  0.000989
    11 C     0.004458  0.000756  0.000495
    12 O    -0.000588 -0.000437 -0.003058
    13 C    -0.000269  0.000396 -0.000055
    14 H    -0.000109 -0.000239 -0.000018
    15 H     0.000121 -0.000151  0.000137
    16 H     0.000148 -0.000157  0.000083
    17 H    -0.000122 -0.000415 -0.000113
    18 H    -0.000158  0.000211  0.000008
    19 H    -0.000171 -0.000115 -0.000003
    20 H    -0.000048 -0.000079 -0.000261
    21 H    -0.000240 -0.000007  0.000160
    22 H    -0.000089 -0.000670 -0.000253
    23 H    -0.000160  0.000272  0.000102
    24 H     0.000153 -0.000195  0.000068
    25 H     0.000166  0.000154  0.000109
    26 H     0.000074 -0.000104  0.000297
    27 H    -0.000078 -0.000348 -0.000162
 ----------------------------------------

 dE(predicted):    -0.11912E-03, dE(actual):    -0.66007E-04, Trust radius:    1.000000, all in a.u.
 
----------------------------------------------------------------------
Geometry Convergence after Step   8       (Hartree/Angstrom,Angstrom)
----------------------------------------------------------------------
current energy                               -5.67045722 Hartree
energy change                      -0.00006601     0.00027000    T
constrained gradient max            0.00445634     0.00010000    F
constrained gradient rms            0.00088217     0.00006667    F
gradient max                        0.00445634
gradient rms                        0.00088217
cart. step max                      0.02688539     0.01000000    F
cart. step rms                      0.00874926     0.00666667    F
 

--------
Geometry
--------
Formula: C10H14O3
Atoms
  Index Symbol   x (angstrom)   y (angstrom)   z (angstrom)
      1      C    -1.01085565    -1.68643349    -0.59554269
      2      C    -1.98588180    -1.42393403     0.45555064
      3      O    -3.13813516    -1.04837607     0.25178053
      4      O    -1.48568797    -1.64435155     1.72288449
      5      C    -2.42966301    -1.39478579     2.79956281
      6      C    -1.35386602    -1.49515308    -2.07644549
      7      C    -0.73693001    -0.11735407    -2.51259694
      8      C     0.80612519    -0.38912201    -2.42645880
      9      C     0.87132840    -1.90372043    -1.97771456
     10      C    -0.35383941    -2.48293808    -2.73460214
     11      C     0.33389778    -1.93107504    -0.54493200
     12      O     1.08894700    -2.00260188     0.57553170
     13      C     2.48449244    -2.35969461     0.42653475
     14      H    -3.30362802    -2.04848260     2.70523292
     15      H    -2.76267159    -0.35120626     2.78601083
     16      H    -1.88000479    -1.61360756     3.71767174
     17      H    -2.41310829    -1.61354151    -2.30734075
     18      H    -1.06386748     0.69193291    -1.85371679
     19      H    -1.03616008     0.13523636    -3.53679193
     20      H     1.29182871    -0.27310816    -3.40213332
     21      H     1.31590928     0.26800773    -1.71453934
     22      H     1.83719885    -2.38311205    -2.14750704
     23      H    -0.27204388    -2.36738953    -3.82268005
     24      H    -0.55721082    -3.52823439    -2.48077579
     25      H     2.88860846    -2.37045054     1.44086367
     26      H     3.02153167    -1.61801044    -0.17758106
     27      H     2.58830622    -3.35487386    -0.02420541

Total System Charge              0.00000

 *** GO1_GOStep9 ***

 Energy gradients wrt nuclear displacements
 ==========================================

     Atom      Cartesian (a.u./angstrom)
                 X         Y         Z
 ----------------------------------------
     1 C    -0.000204  0.000494  0.000605
     2 C    -0.000136 -0.000316 -0.000019
     3 O     0.000027 -0.000031  0.000106
     4 O    -0.000116  0.000093  0.000166
     5 C    -0.000092  0.000230  0.000201
     6 C     0.000486  0.000335 -0.000654
     7 C    -0.000323 -0.000285  0.000168
     8 C     0.000445 -0.000332 -0.000059
     9 C    -0.000314  0.000688  0.000251
    10 C     0.000101  0.000060  0.000259
    11 C     0.000577 -0.000776  0.000193
    12 O    -0.000342  0.000126 -0.000941
    13 C    -0.000234  0.000169 -0.000322
    14 H     0.000032 -0.000028  0.000005
    15 H     0.000098 -0.000091  0.000093
    16 H     0.000034 -0.000044  0.000076
    17 H     0.000016 -0.000198  0.000172
    18 H    -0.000005  0.000001 -0.000020
    19 H    -0.000009 -0.000027 -0.000030
    20 H    -0.000026  0.000113 -0.000113
    21 H    -0.000078  0.000006  0.000014
    22 H     0.000090 -0.000161 -0.000085
    23 H     0.000012  0.000040  0.000003
    24 H    -0.000037 -0.000034  0.000005
    25 H     0.000043  0.000069  0.000012
    26 H     0.000003 -0.000021  0.000003
    27 H    -0.000048 -0.000080 -0.000089
 ----------------------------------------

 dE(predicted):    -0.52562E-04, dE(actual):    -0.38618E-04, Trust radius:    1.000000, all in a.u.
 
----------------------------------------------------------------------
Geometry Convergence after Step   9       (Hartree/Angstrom,Angstrom)
----------------------------------------------------------------------
current energy                               -5.67049584 Hartree
energy change                      -0.00003862     0.00027000    T
constrained gradient max            0.00092537     0.00010000    F
constrained gradient rms            0.00025603     0.00006667    F
gradient max                        0.00092537
gradient rms                        0.00025603
cart. step max                      0.00521499     0.01000000    T
cart. step rms                      0.00190333     0.00666667    T
 

--------
Geometry
--------
Formula: C10H14O3
Atoms
  Index Symbol   x (angstrom)   y (angstrom)   z (angstrom)
      1      C    -1.01125603    -1.68669326    -0.59704663
      2      C    -1.98476982    -1.42225957     0.45456122
      3      O    -3.13664292    -1.04488330     0.25230121
      4      O    -1.48300036    -1.64401073     1.72099283
      5      C    -2.42678058    -1.39688298     2.79831734
      6      C    -1.35516994    -1.49454329    -2.07743930
      7      C    -0.73714527    -0.11682647    -2.51320927
      8      C     0.80559139    -0.38990646    -2.42738308
      9      C     0.87030247    -1.90468513    -1.97859976
     10      C    -0.35555920    -2.48297799    -2.73556784
     11      C     0.33347790    -1.93002095    -0.54537194
     12      O     1.08771803    -2.00129515     0.57655191
     13      C     2.48362504    -2.35887653     0.43069724
     14      H    -3.29853360    -2.05369758     2.70549838
     15      H    -2.76351049    -0.35445500     2.78388778
     16      H    -1.87532676    -1.61278212     3.71599529
     17      H    -2.41456391    -1.61160006    -2.30836888
     18      H    -1.06329770     0.69232049    -1.85376540
     19      H    -1.03644715     0.13657279    -3.53716126
     20      H     1.29117490    -0.27462855    -3.40312870
     21      H     1.31627552     0.26693927    -1.71583891
     22      H     1.83598462    -2.38422257    -2.14836729
     23      H    -0.27380483    -2.36760759    -3.82364643
     24      H    -0.55966329    -3.52809419    -2.48170577
     25      H     2.88549904    -2.36957345     1.44588302
     26      H     3.02217341    -1.61753053    -0.17252756
     27      H     2.58826952    -3.35415908    -0.01949820

Total System Charge              0.00000

 *** GO1_GOStep10 ***

 Energy gradients wrt nuclear displacements
 ==========================================

     Atom      Cartesian (a.u./angstrom)
                 X         Y         Z
 ----------------------------------------
     1 C     0.000195 -0.000180  0.000217
     2 C    -0.000156 -0.000152 -0.000130
     3 O     0.000127 -0.000038  0.000080
     4 O     0.000327  0.000119 -0.000005
     5 C    -0.000202 -0.000076  0.000092
     6 C    -0.000135  0.000369 -0.000591
     7 C    -0.000328 -0.000094  0.000072
     8 C     0.000249 -0.000330  0.000066
     9 C    -0.000276  0.000172 -0.000017
    10 C     0.000058  0.000056  0.000116
    11 C     0.000062  0.000188  0.000140
    12 O     0.000052 -0.000032 -0.000082
    13 C     0.000033  0.000059  0.000062
    14 H     0.000050  0.000028  0.000019
    15 H     0.000101  0.000000  0.000016
    16 H     0.000063 -0.000014  0.000003
    17 H    -0.000033 -0.000070  0.000084
    18 H     0.000006  0.000006 -0.000020
    19 H    -0.000012 -0.000008 -0.000006
    20 H    -0.000034  0.000038 -0.000017
    21 H    -0.000058  0.000012  0.000011
    22 H    -0.000039 -0.000063 -0.000061
    23 H    -0.000067  0.000023  0.000011
    24 H    -0.000030  0.000001 -0.000008
    25 H     0.000055  0.000023 -0.000030
    26 H     0.000004 -0.000026  0.000008
    27 H    -0.000012 -0.000013 -0.000034
 ----------------------------------------

 dE(predicted):    -0.36436E-05, dE(actual):    -0.36614E-05, Trust radius:    1.000000, all in a.u.
 
----------------------------------------------------------------------
Geometry Convergence after Step  10       (Hartree/Angstrom,Angstrom)
----------------------------------------------------------------------
current energy                               -5.67049950 Hartree
energy change                      -0.00000366     0.00027000    T
constrained gradient max            0.00060251     0.00010000    F
constrained gradient rms            0.00013242     0.00006667    F
gradient max                        0.00060251
gradient rms                        0.00013242
cart. step max                      0.00609488     0.01000000    T
cart. step rms                      0.00114519     0.00666667    T
 

--------
Geometry
--------
Formula: C10H14O3
Atoms
  Index Symbol   x (angstrom)   y (angstrom)   z (angstrom)
      1      C    -1.01127723    -1.68772457    -0.59692166
      2      C    -1.98437760    -1.42090526     0.45445040
      3      O    -3.13469046    -1.03878843     0.25183046
      4      O    -1.48441973    -1.64661677     1.72077852
      5      C    -2.42732255    -1.39682182     2.79809602
      6      C    -1.35496592    -1.49589130    -2.07703502
      7      C    -0.73775671    -0.11754837    -2.51236161
      8      C     0.80499080    -0.38975482    -2.42688896
      9      C     0.87071596    -1.90481727    -1.97848175
     10      C    -0.35485265    -2.48353435    -2.73566260
     11      C     0.33344432    -1.93123448    -0.54536355
     12      O     1.08771346    -2.00239020     0.57658967
     13      C     2.48389366    -2.35868685     0.43003066
     14      H    -3.30066988    -2.05159662     2.70568529
     15      H    -2.76172474    -0.35362017     2.78341183
     16      H    -1.87631450    -1.61371386     3.71580666
     17      H    -2.41426732    -1.61302579    -2.30837779
     18      H    -1.06439074     0.69101047    -1.85242314
     19      H    -1.03747229     0.13618285    -3.53610630
     20      H     1.29030898    -0.27424402    -3.40272825
     21      H     1.31568441     0.26718354    -1.71544176
     22      H     1.83680820    -2.38351182    -2.14818426
     23      H    -0.27313043    -2.36772383    -3.82370341
     24      H    -0.55824984    -3.52888590    -2.48221505
     25      H     2.88578735    -2.37084938     1.44517512
     26      H     3.02173730    -1.61580641    -0.17200520
     27      H     2.58941815    -3.35306457    -0.02189434

Total System Charge              0.00000

 *** GO1_GOStep11 ***

 Energy gradients wrt nuclear displacements
 ==========================================

     Atom      Cartesian (a.u./angstrom)
                 X         Y         Z
 ----------------------------------------
     1 C     0.000057 -0.000028  0.000198
     2 C     0.000062 -0.000028 -0.000093
     3 O    -0.000032 -0.000031  0.000017
     4 O     0.000180  0.000101 -0.000012
     5 C    -0.000079 -0.000148  0.000040
     6 C    -0.000000  0.000123 -0.000232
     7 C    -0.000276 -0.000103  0.000086
     8 C     0.000162 -0.000184  0.000019
     9 C    -0.000069  0.000148 -0.000074
    10 C     0.000007  0.000033  0.000093
    11 C    -0.000062  0.000001  0.000031
    12 O     0.000020  0.000022 -0.000045
    13 C     0.000001 -0.000004  0.000017
    14 H     0.000056  0.000042  0.000026
    15 H     0.000067  0.000026  0.000026
    16 H     0.000058 -0.000003  0.000010
    17 H    -0.000026 -0.000019  0.000056
    18 H     0.000002  0.000018 -0.000006
    19 H    -0.000026 -0.000010  0.000008
    20 H    -0.000044  0.000030 -0.000005
    21 H    -0.000039  0.000014 -0.000008
    22 H    -0.000014 -0.000032 -0.000029
    23 H    -0.000033  0.000009 -0.000008
    24 H    -0.000012  0.000005 -0.000015
    25 H     0.000027  0.000007 -0.000039
    26 H     0.000007  0.000008 -0.000030
    27 H     0.000005  0.000006 -0.000031
 ----------------------------------------

 dE(predicted):    -0.82865E-06, dE(actual):    -0.24718E-05, Trust radius:    1.000000, all in a.u.
 
----------------------------------------------------------------------
Geometry Convergence after Step  11       (Hartree/Angstrom,Angstrom)
----------------------------------------------------------------------
current energy                               -5.67050197 Hartree
energy change                      -0.00000247     0.00027000    T
constrained gradient max            0.00025153     0.00010000    F
constrained gradient rms            0.00007128     0.00006667    F
gradient max                        0.00025153
gradient rms                        0.00007128
cart. step max                      0.01026107     0.01000000    F
cart. step rms                      0.00215562     0.00666667    T
 

--------
Geometry
--------
Formula: C10H14O3
Atoms
  Index Symbol   x (angstrom)   y (angstrom)   z (angstrom)
      1      C    -1.01149280    -1.68893885    -0.59661056
      2      C    -1.98397521    -1.41934690     0.45476119
      3      O    -3.13134949    -1.02852736     0.25193610
      4      O    -1.48755320    -1.65320977     1.72080380
      5      C    -2.42894788    -1.39834980     2.79802041
      6      C    -1.35486684    -1.49657072    -2.07625354
      7      C    -0.73714319    -0.11817164    -2.51149078
      8      C     0.80523807    -0.39100063    -2.42688058
      9      C     0.87057529    -1.90636606    -1.97837476
     10      C    -0.35539954    -2.48449353    -2.73547544
     11      C     0.33326780    -1.93281008    -0.54521208
     12      O     1.08781786    -2.00356500     0.57663202
     13      C     2.48492279    -2.35590812     0.42895863
     14      H    -3.30550452    -2.04895737     2.70594031
     15      H    -2.75852042    -0.35359732     2.78313032
     16      H    -1.87909491    -1.61770349     3.71584074
     17      H    -2.41417410    -1.61272110    -2.30813052
     18      H    -1.06337000     0.69007012    -1.85096064
     19      H    -1.03739591     0.13616074    -3.53493206
     20      H     1.29009139    -0.27625774    -3.40304480
     21      H     1.31702185     0.26567016    -1.71597734
     22      H     1.83665133    -2.38502259    -2.14807920
     23      H    -0.27386274    -2.36851881    -3.82351371
     24      H    -0.55906328    -3.52983994    -2.48219411
     25      H     2.88687031    -2.37002671     1.44404385
     26      H     3.02068540    -1.60976522    -0.17097638
     27      H     2.59319192    -3.34861226    -0.02590087

Total System Charge              0.00000

 *** GO1_GOStep12 ***

 Energy gradients wrt nuclear displacements
 ==========================================

     Atom      Cartesian (a.u./angstrom)
                 X         Y         Z
 ----------------------------------------
     1 C    -0.000170  0.000010 -0.000109
     2 C     0.000227 -0.000000  0.000036
     3 O    -0.000061 -0.000045  0.000002
     4 O    -0.000140  0.000078  0.000003
     5 C     0.000132 -0.000142 -0.000059
     6 C     0.000177 -0.000036  0.000288
     7 C    -0.000134 -0.000069  0.000025
     8 C     0.000005  0.000044 -0.000011
     9 C     0.000077 -0.000018 -0.000110
    10 C    -0.000093  0.000005  0.000031
    11 C    -0.000031 -0.000062  0.000028
    12 O     0.000023  0.000092 -0.000005
    13 C    -0.000024 -0.000058 -0.000029
    14 H     0.000053  0.000033  0.000027
    15 H     0.000016  0.000040  0.000051
    16 H     0.000040  0.000009  0.000028
    17 H    -0.000019  0.000029 -0.000003
    18 H    -0.000015  0.000015  0.000006
    19 H    -0.000033  0.000010  0.000008
    20 H    -0.000040  0.000001 -0.000004
    21 H    -0.000010  0.000004 -0.000024
    22 H    -0.000003  0.000019 -0.000001
    23 H    -0.000021 -0.000013 -0.000023
    24 H    -0.000002 -0.000006 -0.000019
    25 H     0.000007 -0.000011 -0.000045
    26 H     0.000022  0.000046 -0.000057
    27 H     0.000017  0.000027 -0.000034
 ----------------------------------------

 dE(predicted):    -0.73794E-06, dE(actual):    -0.42086E-05, Trust radius:    1.000000, all in a.u.
 
----------------------------------------------------------------------
Geometry Convergence after Step  12       (Hartree/Angstrom,Angstrom)
----------------------------------------------------------------------
current energy                               -5.67050618 Hartree
energy change                      -0.00000421     0.00027000    T
constrained gradient max            0.00027626     0.00010000    F
constrained gradient rms            0.00006634     0.00006667    T
gradient max                        0.00027626
gradient rms                        0.00006634
cart. step max                      0.00608368     0.01000000    T
cart. step rms                      0.00118219     0.00666667    T
 

--------
Geometry
--------
Formula: C10H14O3
Atoms
  Index Symbol   x (angstrom)   y (angstrom)   z (angstrom)
      1      C    -1.01170161    -1.68901478    -0.59654114
      2      C    -1.98372803    -1.41804480     0.45501603
      3      O    -3.12950900    -1.02244368     0.25251046
      4      O    -1.48873004    -1.65638857     1.72077414
      5      C    -2.42959016    -1.39985674     2.79806049
      6      C    -1.35503531    -1.49646692    -2.07614371
      7      C    -0.73652163    -0.11831844    -2.51151809
      8      C     0.80560054    -0.39192386    -2.42709885
      9      C     0.87025707    -1.90733936    -1.97833043
     10      C    -0.35604332    -2.48490561    -2.73536840
     11      C     0.33296568    -1.93353421    -0.54517776
     12      O     1.08757393    -2.00430417     0.57668062
     13      C     2.48530773    -2.35415689     0.42878489
     14      H    -3.30733688    -2.04892406     2.70597156
     15      H    -2.75730721    -0.35454405     2.78327270
     16      H    -1.88012772    -1.62040045     3.71582679
     17      H    -2.41438408    -1.61203390    -2.30812848
     18      H    -1.06235525     0.68998617    -1.85087853
     19      H    -1.03685583     0.13616530    -3.53489523
     20      H     1.29037808    -0.27774337    -3.40337463
     21      H     1.31794884     0.26457817    -1.71644717
     22      H     1.83612767    -2.38637659    -2.14805997
     23      H    -0.27450528    -2.36904129    -3.82340509
     24      H    -0.56019866    -3.53012382    -2.48194854
     25      H     2.88735862    -2.36789432     1.44383958
     26      H     3.01966278    -1.60683770    -0.17092435
     27      H     2.59536910    -3.34649203    -0.02643690

Total System Charge              0.00000

 *** GO1_GOStep13 ***

 Energy gradients wrt nuclear displacements
 ==========================================

     Atom      Cartesian (a.u./angstrom)
                 X         Y         Z
 ----------------------------------------
     1 C    -0.000141  0.000036 -0.000195
     2 C     0.000166 -0.000020  0.000085
     3 O    -0.000062 -0.000023  0.000010
     4 O    -0.000125  0.000068  0.000022
     5 C     0.000149 -0.000109 -0.000080
     6 C     0.000096 -0.000094  0.000349
     7 C    -0.000021 -0.000032 -0.000015
     8 C    -0.000059  0.000117 -0.000022
     9 C     0.000117 -0.000064 -0.000084
    10 C    -0.000089  0.000010 -0.000016
    11 C    -0.000050 -0.000102  0.000026
    12 O     0.000032  0.000106  0.000013
    13 C     0.000004 -0.000061 -0.000038
    14 H     0.000037  0.000013  0.000034
    15 H     0.000010  0.000027  0.000045
    16 H     0.000039  0.000008  0.000025
    17 H    -0.000019  0.000028 -0.000013
    18 H    -0.000022  0.000004  0.000015
    19 H    -0.000039  0.000009  0.000012
    20 H    -0.000037 -0.000006 -0.000011
    21 H    -0.000001 -0.000002 -0.000025
    22 H    -0.000009  0.000037  0.000001
    23 H    -0.000023 -0.000013 -0.000011
    24 H    -0.000004 -0.000004 -0.000004
    25 H     0.000014 -0.000008 -0.000040
    26 H     0.000017  0.000042 -0.000050
    27 H     0.000020  0.000033 -0.000032
 ----------------------------------------

 dE(predicted):    -0.21505E-06, dE(actual):    -0.17665E-05, Trust radius:    1.000000, all in a.u.
 
----------------------------------------------------------------------
Geometry Convergence after Step  13       (Hartree/Angstrom,Angstrom)
----------------------------------------------------------------------
current energy                               -5.67050795 Hartree
energy change                      -0.00000177     0.00027000    T
constrained gradient max            0.00033728     0.00010000    F
constrained gradient rms            0.00006868     0.00006667    F
gradient max                        0.00033728
gradient rms                        0.00006868
cart. step max                      0.01321245     0.01000000    F
cart. step rms                      0.00271426     0.00666667    T
 

--------
Geometry
--------
Formula: C10H14O3
Atoms
  Index Symbol   x (angstrom)   y (angstrom)   z (angstrom)
      1      C    -1.01213207    -1.68883122    -0.59637637
      2      C    -1.98320036    -1.41515085     0.45557797
      3      O    -3.12545442    -1.00923124     0.25389672
      4      O    -1.49133713    -1.66371068     1.72066092
      5      C    -2.43086466    -1.40347148     2.79835279
      6      C    -1.35539087    -1.49598214    -2.07613924
      7      C    -0.73511723    -0.11854141    -2.51198566
      8      C     0.80647672    -0.39402058    -2.42771695
      9      C     0.86943422    -1.90938550    -1.97819362
     10      C    -0.35749345    -2.48579987    -2.73503720
     11      C     0.33230501    -1.93465098    -0.54509467
     12      O     1.08685665    -2.00598347     0.57680779
     13      C     2.48597858    -2.35015892     0.42855101
     14      H    -3.31179195    -2.04824972     2.70562379
     15      H    -2.75342539    -0.35661918     2.78459868
     16      H    -1.88248798    -1.62794814     3.71581247
     17      H    -2.41484287    -1.61046596    -2.30816443
     18      H    -1.06007995     0.69013195    -1.85139510
     19      H    -1.03541833     0.13600057    -3.53535421
     20      H     1.29126230    -0.28106858    -3.40415077
     21      H     1.31982986     0.26221958    -1.71754840
     22      H     1.83473521    -2.38956014    -2.14796795
     23      H    -0.27585436    -2.37036371    -3.82308678
     24      H    -0.56284482    -3.53067151    -2.48114720
     25      H     2.88835965    -2.36212011     1.44351036
     26      H     3.01706242    -1.60069050    -0.17131423
     27      H     2.60005523    -3.34205622    -0.02665970

Total System Charge              0.00000

 *** GO1_GOStep14 ***

 Energy gradients wrt nuclear displacements
 ==========================================

     Atom      Cartesian (a.u./angstrom)
                 X         Y         Z
 ----------------------------------------
     1 C    -0.000009  0.000022 -0.000226
     2 C    -0.000016 -0.000013  0.000114
     3 O    -0.000008 -0.000021  0.000019
     4 O    -0.000038 -0.000009  0.000028
     5 C     0.000147  0.000020 -0.000034
     6 C    -0.000063 -0.000154  0.000265
     7 C     0.000180  0.000097 -0.000071
     8 C    -0.000167  0.000173 -0.000014
     9 C     0.000050 -0.000120  0.000009
    10 C    -0.000028 -0.000010 -0.000096
    11 C    -0.000005 -0.000033  0.000025
    12 O     0.000013  0.000074  0.000005
    13 C     0.000045 -0.000027 -0.000058
    14 H     0.000009 -0.000042  0.000040
    15 H     0.000014 -0.000012  0.000031
    16 H     0.000040 -0.000004  0.000023
    17 H    -0.000010 -0.000001 -0.000009
    18 H    -0.000037 -0.000013  0.000027
    19 H    -0.000052  0.000000  0.000018
    20 H    -0.000032 -0.000016 -0.000026
    21 H    -0.000004 -0.000002 -0.000021
    22 H    -0.000022  0.000037 -0.000014
    23 H    -0.000034 -0.000004  0.000019
    24 H    -0.000013 -0.000003  0.000025
    25 H     0.000024  0.000014 -0.000024
    26 H    -0.000003  0.000022 -0.000024
    27 H     0.000021  0.000025 -0.000033
 ----------------------------------------

 dE(predicted):    -0.42514E-06, dE(actual):    -0.30221E-05, Trust radius:    1.000000, all in a.u.
 
----------------------------------------------------------------------
Geometry Convergence after Step  14       (Hartree/Angstrom,Angstrom)
----------------------------------------------------------------------
current energy                               -5.67051097 Hartree
energy change                      -0.00000302     0.00027000    T
constrained gradient max            0.00025389     0.00010000    F
constrained gradient rms            0.00006384     0.00006667    T
gradient max                        0.00025389
gradient rms                        0.00006384
cart. step max                      0.00926006     0.01000000    T
cart. step rms                      0.00192447     0.00666667    T
 

--------
Geometry
--------
Formula: C10H14O3
Atoms
  Index Symbol   x (angstrom)   y (angstrom)   z (angstrom)
      1      C    -1.01212850    -1.68834305    -0.59595212
      2      C    -1.98248666    -1.41260744     0.45617495
      3      O    -3.12237731    -0.99997118     0.25494697
      4      O    -1.49290508    -1.66772174     1.72088892
      5      C    -2.43223567    -1.40613208     2.79854992
      6      C    -1.35557381    -1.49557057    -2.07589130
      7      C    -0.73431275    -0.11880915    -2.51245365
      8      C     0.80705820    -0.39546707    -2.42832213
      9      C     0.86894881    -1.91064678    -1.97809752
     10      C    -0.35849184    -2.48640305    -2.73449412
     11      C     0.33212759    -1.93519654    -0.54495778
     12      O     1.08679410    -2.00689002     0.57683516
     13      C     2.48671844    -2.34757198     0.42820266
     14      H    -3.31528399    -2.04776822     2.70406231
     15      H    -2.75114841    -0.35818881     2.78644451
     16      H    -1.88519239    -1.63430853     3.71589210
     17      H    -2.41514966    -1.60946116    -2.30763521
     18      H    -1.05861306     0.69037087    -1.85218347
     19      H    -1.03458996     0.13543973    -3.53590450
     20      H     1.29177840    -0.28330846    -3.40488656
     21      H     1.32098434     0.26076343    -1.71855767
     22      H     1.83381846    -2.39168621    -2.14799686
     23      H    -0.27691122    -2.37140015    -3.82259501
     24      H    -0.56457210    -3.53102789    -2.48019138
     25      H     2.88954940    -2.35802944     1.44300262
     26      H     3.01567521    -1.59705560    -0.17220558
     27      H     2.60313946    -3.33938891    -0.02661525

Total System Charge              0.00000

 *** GO1_GOStep15 ***

 Energy gradients wrt nuclear displacements
 ==========================================

     Atom      Cartesian (a.u./angstrom)
                 X         Y         Z
 ----------------------------------------
     1 C     0.000046  0.000005 -0.000119
     2 C    -0.000104  0.000016  0.000072
     3 O     0.000053 -0.000018  0.000045
     4 O     0.000024 -0.000022  0.000027
     5 C     0.000082  0.000053 -0.000002
     6 C    -0.000140 -0.000146  0.000130
     7 C     0.000217  0.000128 -0.000080
     8 C    -0.000177  0.000136 -0.000020
     9 C    -0.000013 -0.000092  0.000067
    10 C     0.000023  0.000009 -0.000076
    11 C     0.000039 -0.000032  0.000009
    12 O    -0.000005  0.000036 -0.000046
    13 C     0.000055  0.000012 -0.000055
    14 H     0.000007 -0.000059  0.000047
    15 H     0.000027 -0.000036  0.000015
    16 H     0.000044 -0.000013  0.000023
    17 H    -0.000009 -0.000022  0.000008
    18 H    -0.000042 -0.000023  0.000024
    19 H    -0.000056 -0.000006  0.000016
    20 H    -0.000032 -0.000008 -0.000032
    21 H    -0.000013  0.000000 -0.000018
    22 H    -0.000017  0.000022 -0.000027
    23 H    -0.000035  0.000004  0.000026
    24 H    -0.000014 -0.000001  0.000032
    25 H     0.000034  0.000027 -0.000020
    26 H    -0.000007  0.000011 -0.000015
    27 H     0.000014  0.000019 -0.000032
 ----------------------------------------

 dE(predicted):    -0.16726E-06, dE(actual):    -0.19052E-05, Trust radius:    1.000000, all in a.u.
 
----------------------------------------------------------------------
Geometry Convergence after Step  15       (Hartree/Angstrom,Angstrom)
----------------------------------------------------------------------
current energy                               -5.67051287 Hartree
energy change                      -0.00000191     0.00027000    T
constrained gradient max            0.00024534     0.00010000    F
constrained gradient rms            0.00005633     0.00006667    T
gradient max                        0.00024534
gradient rms                        0.00005633
cart. step max                      0.00267519     0.01000000    T
cart. step rms                      0.00047395     0.00666667    T
 

--------
Geometry
--------
Formula: C10H14O3
Atoms
  Index Symbol   x (angstrom)   y (angstrom)   z (angstrom)
      1      C    -1.01198812    -1.68812840    -0.59589203
      2      C    -1.98256892    -1.41312660     0.45613966
      3      O    -3.12322931    -1.00264636     0.25477138
      4      O    -1.49233948    -1.66632481     1.72101048
      5      C    -2.43206818    -1.40560341     2.79857240
      6      C    -1.35551049    -1.49548561    -2.07591725
      7      C    -0.73456383    -0.11876681    -2.51255533
      8      C     0.80697864    -0.39514745    -2.42830191
      9      C     0.86906549    -1.91022814    -1.97811634
     10      C    -0.35829802    -2.48621887    -2.73443593
     11      C     0.33228122    -1.93481174    -0.54494657
     12      O     1.08693858    -2.00666550     0.57683036
     13      C     2.48663399    -2.34822427     0.42824781
     14      H    -3.31484862    -2.04746264     2.70352540
     15      H    -2.75130855    -0.35774481     2.78687894
     16      H    -1.88513434    -1.63396691     3.71593124
     17      H    -2.41509809    -1.60962446    -2.30748667
     18      H    -1.05896185     0.69054128    -1.85249151
     19      H    -1.03472958     0.13527426    -3.53609353
     20      H     1.29175362    -0.28273174    -3.40480230
     21      H     1.32061133     0.26119721    -1.71842855
     22      H     1.83397524    -2.39121083    -2.14801545
     23      H    -0.27672656    -2.37126074    -3.82255709
     24      H    -0.56421442    -3.53087453    -2.48014263
     25      H     2.88952881    -2.35855365     1.44301812
     26      H     3.01604761    -1.59828565    -0.17249301
     27      H     2.60239381    -3.34029883    -0.02618969

Total System Charge              0.00000

 *** GO1_GOStep16 ***

 Energy gradients wrt nuclear displacements
 ==========================================

     Atom      Cartesian (a.u./angstrom)
                 X         Y         Z
 ----------------------------------------
     1 C     0.000047 -0.000002 -0.000023
     2 C    -0.000060  0.000010  0.000034
     3 O     0.000026 -0.000020  0.000041
     4 O     0.000049 -0.000025  0.000030
     5 C     0.000039  0.000043  0.000020
     6 C    -0.000104 -0.000081  0.000032
     7 C     0.000114  0.000081 -0.000040
     8 C    -0.000106  0.000064 -0.000021
     9 C    -0.000039 -0.000042  0.000046
    10 C     0.000024  0.000012 -0.000023
    11 C     0.000031 -0.000013 -0.000011
    12 O     0.000000  0.000019 -0.000046
    13 C     0.000035  0.000018 -0.000041
    14 H     0.000026 -0.000041  0.000039
    15 H     0.000032 -0.000035  0.000018
    16 H     0.000047 -0.000014  0.000020
    17 H    -0.000012 -0.000023  0.000020
    18 H    -0.000035 -0.000017  0.000015
    19 H    -0.000049 -0.000008  0.000012
    20 H    -0.000033  0.000002 -0.000025
    21 H    -0.000020  0.000005 -0.000017
    22 H    -0.000011  0.000011 -0.000031
    23 H    -0.000033  0.000004  0.000015
    24 H    -0.000012 -0.000001  0.000018
    25 H     0.000033  0.000025 -0.000027
    26 H    -0.000000  0.000013 -0.000024
    27 H     0.000012  0.000017 -0.000031
 ----------------------------------------
 
----------------------------------------------------------------------
Geometry Convergence after Step  16       (Hartree/Angstrom,Angstrom)
----------------------------------------------------------------------
current energy                               -5.67051252 Hartree
energy change                       0.00000035     0.00027000    T
constrained gradient max            0.00014242     0.00010000    F
constrained gradient rms            0.00003161     0.00006667    T
gradient max                        0.00014242
gradient rms                        0.00003161
cart. step max                      0.00137115     0.01000000    T
cart. step rms                      0.00031774     0.00666667    T
 

--------
Geometry
--------
Formula: C10H14O3
Atoms
  Index Symbol   x (angstrom)   y (angstrom)   z (angstrom)
      1      C    -1.01197732    -1.68835727    -0.59590630
      2      C    -1.98261871    -1.41352045     0.45602246
      3      O    -3.12349168    -1.00364598     0.25453594
      4      O    -1.49225958    -1.66610280     1.72095706
      5      C    -2.43192136    -1.40517804     2.79853777
      6      C    -1.35547866    -1.49564267    -2.07595284
      7      C    -0.73482583    -0.11889947    -2.51243540
      8      C     0.80686388    -0.39504050    -2.42809717
      9      C     0.86912647    -1.91010898    -1.97814753
     10      C    -0.35816034    -2.48621436    -2.73451836
     11      C     0.33230843    -1.93489664    -0.54496097
     12      O     1.08692458    -2.00687439     0.57684316
     13      C     2.48662228    -2.34835066     0.42824490
     14      H    -3.31529039    -2.04609149     2.70295053
     15      H    -2.75014254    -0.35698228     2.78744349
     16      H    -1.88531010    -1.63455605     3.71583304
     17      H    -2.41506826    -1.60989852    -2.30747060
     18      H    -1.05932626     0.69041442    -1.85242734
     19      H    -1.03487822     0.13512871    -3.53601372
     20      H     1.29168586    -0.28230905    -3.40452942
     21      H     1.32026308     0.26131675    -1.71806426
     22      H     1.83409697    -2.39097988    -2.14803991
     23      H    -0.27656407    -2.37115123    -3.82264221
     24      H    -0.56392915    -3.53093675    -2.48039331
     25      H     2.88948890    -2.35885568     1.44301759
     26      H     3.01604581    -1.59830024    -0.17236988
     27      H     2.60243620    -3.34034648    -0.02635673

Total System Charge              0.00000

 *** GO1_GOStep17 ***

 Energy gradients wrt nuclear displacements
 ==========================================

     Atom      Cartesian (a.u./angstrom)
                 X         Y         Z
 ----------------------------------------
     1 C     0.000014  0.000001  0.000040
     2 C     0.000007  0.000001 -0.000004
     3 O     0.000007 -0.000026  0.000029
     4 O     0.000038 -0.000026  0.000015
     5 C     0.000030  0.000018  0.000037
     6 C    -0.000040 -0.000028 -0.000010
     7 C     0.000007  0.000027 -0.000002
     8 C    -0.000047  0.000014 -0.000016
     9 C    -0.000046 -0.000005  0.000007
    10 C     0.000005  0.000006  0.000019
    11 C     0.000021 -0.000003 -0.000021
    12 O     0.000010  0.000012 -0.000029
    13 C     0.000015  0.000021 -0.000027
    14 H     0.000044 -0.000022  0.000032
    15 H     0.000032 -0.000023  0.000025
    16 H     0.000049 -0.000011  0.000018
    17 H    -0.000016 -0.000015  0.000027
    18 H    -0.000028 -0.000008  0.000008
    19 H    -0.000044 -0.000008  0.000009
    20 H    -0.000036  0.000007 -0.000016
    21 H    -0.000023  0.000009 -0.000018
    22 H    -0.000008  0.000008 -0.000027
    23 H    -0.000030  0.000000  0.000001
    24 H    -0.000009 -0.000004  0.000003
    25 H     0.000028  0.000021 -0.000035
    26 H     0.000007  0.000019 -0.000034
    27 H     0.000012  0.000015 -0.000031
 ----------------------------------------
 
---------------------------------------------------------
Geometry Convergence after Step  17       ** CONVERGED **
---------------------------------------------------------
current energy                               -5.67051232 Hartree
energy change                       0.00000021     0.00027000    T
constrained gradient max            0.00003583     0.00010000    T
constrained gradient rms            0.00001185     0.00006667    T
gradient max                        0.00003583
gradient rms                        0.00001185
cart. step max                      0.00149367     0.01000000    T
cart. step rms                      0.00038910     0.00666667    T
 
Geometry optimization converged

Optimized geometry:

--------
Geometry
--------
Formula: C10H14O3
Atoms
  Index Symbol   x (angstrom)   y (angstrom)   z (angstrom)
      1      C    -1.01197732    -1.68835727    -0.59590630
      2      C    -1.98261871    -1.41352045     0.45602246
      3      O    -3.12349168    -1.00364598     0.25453594
      4      O    -1.49225958    -1.66610280     1.72095706
      5      C    -2.43192136    -1.40517804     2.79853777
      6      C    -1.35547866    -1.49564267    -2.07595284
      7      C    -0.73482583    -0.11889947    -2.51243540
      8      C     0.80686388    -0.39504050    -2.42809717
      9      C     0.86912647    -1.91010898    -1.97814753
     10      C    -0.35816034    -2.48621436    -2.73451836
     11      C     0.33230843    -1.93489664    -0.54496097
     12      O     1.08692458    -2.00687439     0.57684316
     13      C     2.48662228    -2.34835066     0.42824490
     14      H    -3.31529039    -2.04609149     2.70295053
     15      H    -2.75014254    -0.35698228     2.78744349
     16      H    -1.88531010    -1.63455605     3.71583304
     17      H    -2.41506826    -1.60989852    -2.30747060
     18      H    -1.05932626     0.69041442    -1.85242734
     19      H    -1.03487822     0.13512871    -3.53601372
     20      H     1.29168586    -0.28230905    -3.40452942
     21      H     1.32026308     0.26131675    -1.71806426
     22      H     1.83409697    -2.39097988    -2.14803991
     23      H    -0.27656407    -2.37115123    -3.82264221
     24      H    -0.56392915    -3.53093675    -2.48039331
     25      H     2.88948890    -2.35885568     1.44301759
     26      H     3.01604581    -1.59830024    -0.17236988
     27      H     2.60243620    -3.34034648    -0.02635673

Total System Charge              0.00000

Performing a single point calculation on the final geometry ...

 *** adf ***



 ===========================
 A T T A C H E D   F I L E S
 ===========================
  
 Restart/tmp/amstmp_c5_fragB_opt_kid0.796430572/GO1_GOStep17.rkf*** GO1_GOStep17 ***



 ===============================
 M O D E L   P A R A M E T E R S
 ===============================
  
 DENSITY FUNCTIONAL POTENTIAL (scf)
    LDA:                               Exchange only                           == Not Default ==
    Gradient Corrections:              Becke88 LYP                             == Not Default ==

 SPIN  (restricted / unrestr.)
    Molecule:                          Restricted                               
    Fragments:                         Restricted                               

 OTHER ASPECTS
    Relativistic Corrections:          scalar (ZORA,MAPA)                       

    Nuclear Charge Density Model:      Point Charge Nuclei                      
    Core Treatment:                    Frozen Orbital(s)                        

    Hyperfine or Zeeman Interaction:   ---                                      

 Settings for Grimme D3 dispersion correction

      damping                        BJ
      s6                          1.000
      s8                          2.700
      a1                          0.430
      a2                          4.236

 Other (technical) parameters

      alpha                      14.000
      version                         4
 



 ===============
 G E O M E T R Y  ***  3D  Molecule  ***
 ===============
  

 ATOMS
 =====                            X Y Z                    CHARGE
                                (Angstrom)             Nucl     +Core       At.Mass
                       --------------------------    ----------------       -------
    1  C              -1.0120   -1.6884   -0.5959      6.00      6.00       12.0000
    2  C              -1.9826   -1.4135    0.4560      6.00      6.00       12.0000
    3  O              -3.1235   -1.0036    0.2545      8.00      8.00       15.9949
    4  O              -1.4923   -1.6661    1.7210      8.00      8.00       15.9949
    5  C              -2.4319   -1.4052    2.7985      6.00      6.00       12.0000
    6  C              -1.3555   -1.4956   -2.0760      6.00      6.00       12.0000
    7  C              -0.7348   -0.1189   -2.5124      6.00      6.00       12.0000
    8  C               0.8069   -0.3950   -2.4281      6.00      6.00       12.0000
    9  C               0.8691   -1.9101   -1.9781      6.00      6.00       12.0000
   10  C              -0.3582   -2.4862   -2.7345      6.00      6.00       12.0000
   11  C               0.3323   -1.9349   -0.5450      6.00      6.00       12.0000
   12  O               1.0869   -2.0069    0.5768      8.00      8.00       15.9949
   13  C               2.4866   -2.3484    0.4282      6.00      6.00       12.0000
   14  H              -3.3153   -2.0461    2.7030      1.00      1.00        1.0078
   15  H              -2.7501   -0.3570    2.7874      1.00      1.00        1.0078
   16  H              -1.8853   -1.6346    3.7158      1.00      1.00        1.0078
   17  H              -2.4151   -1.6099   -2.3075      1.00      1.00        1.0078
   18  H              -1.0593    0.6904   -1.8524      1.00      1.00        1.0078
   19  H              -1.0349    0.1351   -3.5360      1.00      1.00        1.0078
   20  H               1.2917   -0.2823   -3.4045      1.00      1.00        1.0078
   21  H               1.3203    0.2613   -1.7181      1.00      1.00        1.0078
   22  H               1.8341   -2.3910   -2.1480      1.00      1.00        1.0078
   23  H              -0.2766   -2.3712   -3.8226      1.00      1.00        1.0078
   24  H              -0.5639   -3.5309   -2.4804      1.00      1.00        1.0078
   25  H               2.8895   -2.3589    1.4430      1.00      1.00        1.0078
   26  H               3.0160   -1.5983   -0.1724      1.00      1.00        1.0078
   27  H               2.6024   -3.3403   -0.0264      1.00      1.00        1.0078


 FRAGMENTS
 =========                                     Atoms in this Fragment     Cart. coord.s (Angstrom)
                                               -------------------------------------------------------
    1  C                                                 1  C           -1.0120   -1.6884   -0.5959
    2  C                                                 2  C           -1.9826   -1.4135    0.4560
    3  C                                                 5  C           -2.4319   -1.4052    2.7985
    4  C                                                 6  C           -1.3555   -1.4956   -2.0760
    5  C                                                 7  C           -0.7348   -0.1189   -2.5124
    6  C                                                 8  C            0.8069   -0.3950   -2.4281
    7  C                                                 9  C            0.8691   -1.9101   -1.9781
    8  C                                                10  C           -0.3582   -2.4862   -2.7345
    9  C                                                11  C            0.3323   -1.9349   -0.5450
   10  C                                                13  C            2.4866   -2.3484    0.4282
   11  O                                                 3  O           -3.1235   -1.0036    0.2545
   12  O                                                 4  O           -1.4923   -1.6661    1.7210
   13  O                                                12  O            1.0869   -2.0069    0.5768
   14  H                                                14  H           -3.3153   -2.0461    2.7030
   15  H                                                15  H           -2.7501   -0.3570    2.7874
   16  H                                                16  H           -1.8853   -1.6346    3.7158
[...]
                                   -1.04%     2 P:z             4.589  0.00     2 C

 Energy gradients wrt nuclear displacements
 ==========================================

     Atom      Cartesian (a.u./angstrom)
                 X         Y         Z
 ----------------------------------------
     1 C     0.000014  0.000001  0.000040
     2 C     0.000007  0.000001 -0.000004
     3 O     0.000007 -0.000026  0.000029
     4 O     0.000038 -0.000026  0.000015
     5 C     0.000030  0.000018  0.000037
     6 C    -0.000040 -0.000028 -0.000010
     7 C     0.000007  0.000027 -0.000002
     8 C    -0.000047  0.000014 -0.000016
     9 C    -0.000046 -0.000005  0.000007
    10 C     0.000005  0.000006  0.000019
    11 C     0.000021 -0.000003 -0.000021
    12 O     0.000010  0.000012 -0.000028
    13 C     0.000015  0.000021 -0.000027
    14 H     0.000044 -0.000022  0.000032
    15 H     0.000032 -0.000023  0.000025
    16 H     0.000049 -0.000011  0.000018
    17 H    -0.000016 -0.000015  0.000027
    18 H    -0.000028 -0.000008  0.000008
    19 H    -0.000044 -0.000008  0.000009
    20 H    -0.000036  0.000007 -0.000016
    21 H    -0.000023  0.000009 -0.000018
    22 H    -0.000008  0.000008 -0.000027
    23 H    -0.000030  0.000000  0.000001
    24 H    -0.000009 -0.000004  0.000003
    25 H     0.000028  0.000021 -0.000035
    26 H     0.000007  0.000019 -0.000034
    27 H     0.000013  0.000015 -0.000031
 ----------------------------------------



 =======================================================================
 Electrostatic potential at the Nuclei due to electrons and other nuclei
 =======================================================================
  
         Atom                  Potential
         ----                  ---------
     1)   C                  14.79457021
     2)   C                  14.68677496
     3)   O                  22.43771073
     4)   O                  22.37821864
     5)   C                  14.74909586
     6)   C                  14.77909872
     7)   C                  14.79050814
     8)   C                  14.77966593
     9)   C                  14.76325050
    10)   C                  14.78518243
    11)   C                  14.72162856
    12)   O                  22.35087420
    13)   C                  14.72153244
    14)   H                   1.11852962
    15)   H                   1.11847727
    16)   H                   1.11485164
    17)   H                   1.12731358
    18)   H                   1.13033824
    19)   H                   1.12761440
    20)   H                   1.11783432
    21)   H                   1.11938981
    22)   H                   1.10274354
    23)   H                   1.11786670
    24)   H                   1.11996311
    25)   H                   1.09084781
    26)   H                   1.09017957
    27)   H                   1.09033952
 Mulliken charges used for AMS results%charges...


    =====================
     CALCULATION RESULTS
    =====================

Energy (hartree)            -5.67051232

Gradients (hartree/bohr)
  Index   Atom            d/dx            d/dy            d/dz
      1      C    0.0000071896    0.0000004415    0.0000210838
      2      C    0.0000038742    0.0000006147   -0.0000022452
      3      O    0.0000036777   -0.0000138011    0.0000154428
      4      O    0.0000201237   -0.0000135645    0.0000078226
      5      C    0.0000159897    0.0000093494    0.0000195893
      6      C   -0.0000209203   -0.0000148995   -0.0000050966
      7      C    0.0000037484    0.0000141961   -0.0000011616
      8      C   -0.0000251080    0.0000072294   -0.0000083175
      9      C   -0.0000240802   -0.0000025891    0.0000038802
     10      C    0.0000026820    0.0000030947    0.0000099605
     11      C    0.0000111519   -0.0000017169   -0.0000112883
     12      O    0.0000052530    0.0000062024   -0.0000150665
     13      C    0.0000077594    0.0000112624   -0.0000143224
     14      H    0.0000232298   -0.0000116935    0.0000169088
     15      H    0.0000169122   -0.0000122399    0.0000129968
     16      H    0.0000258207   -0.0000057818    0.0000094690
     17      H   -0.0000082861   -0.0000078918    0.0000144142
     18      H   -0.0000147498   -0.0000042611    0.0000040388
     19      H   -0.0000232826   -0.0000042001    0.0000049406
     20      H   -0.0000191153    0.0000037676   -0.0000086262
     21      H   -0.0000123170    0.0000049301   -0.0000094745
     22      H   -0.0000042511    0.0000040556   -0.0000145122
     23      H   -0.0000159817    0.0000001584    0.0000003199
     24      H   -0.0000046053   -0.0000020214    0.0000017040
     25      H    0.0000147988    0.0000111994   -0.0000183939
     26      H    0.0000038711    0.0000100926   -0.0000177512
     27      H    0.0000066150    0.0000080663   -0.0000163153


--------------
Atomic charges
--------------
  Index   Atom    Charge
      1      C   -0.1363
      2      C    0.6987
      3      O   -0.5832
      4      O   -0.5394
      5      C    0.9709
      6      C    0.2065
      7      C    0.4298
      8      C    0.4216
      9      C    0.1252
     10      C    0.4264
     11      C    0.3776
     12      O   -0.5193
     13      C    0.9892
     14      H   -0.1932
     15      H   -0.1935
     16      H   -0.2476
     17      H   -0.1741
     18      H   -0.1976
     19      H   -0.2020
     20      H   -0.1969
     21      H   -0.2038
     22      H   -0.1881
     23      H   -0.2158
     24      H   -0.2090
     25      H   -0.2469
     26      H   -0.1977
     27      H   -0.2014


Dipole moment vector    (Debye):     4.28415772   -0.86147208   -0.67807438
              magnitude (Debye):     4.42220831


-----------------------
Molecular orbitals info
-----------------------
n orbitals:              492
n spin:                    1

Note: only printing virtual orbitals with
      energy smaller than HOMO + 100. eV

HOMO (eV):              -5.2519
LUMO (eV):              -1.6091
HOMO-LUMO gap (eV):      3.6428

   Index   Energy (eV)    Occupation
     312       94.2823         0.000       
     311       93.7977         0.000       
     310       93.7030         0.000       
     309       93.3993         0.000       
     308       93.1319         0.000       
     307       92.7768         0.000       
     306       92.5375         0.000       
     305       92.0254         0.000       
     304       91.7333         0.000       
     303       91.6102         0.000       
     302       90.9129         0.000       
     301       90.4880         0.000       
     300       90.3440         0.000       
     299       89.9134         0.000       
     298       89.6574         0.000       
     297       88.9914         0.000       
     296       88.6397         0.000       
     295       88.3120         0.000       
     294       87.8273         0.000       
     293       86.5019         0.000       
     292       85.9159         0.000       
     291       85.6201         0.000       
     290       84.9490         0.000       
     289       84.0084         0.000       
     288       83.4605         0.000       
     287       83.2546         0.000       
     286       82.4277         0.000       
     285       82.1657         0.000       
     284       81.4294         0.000       
     283       80.8294         0.000       
     282       80.5304         0.000       
     281       80.1656         0.000       
     280       79.9106         0.000       
     279       79.4102         0.000       
     278       79.0797         0.000       
     277       78.6971         0.000       
     276       78.5924         0.000       
     275       78.3852         0.000       
     274       77.8816         0.000       
     273       77.6401         0.000       
     272       77.1937         0.000       
     271       77.1226         0.000       
     270       76.9817         0.000       
     269       76.4004         0.000       
     268       76.1985         0.000       
     267       76.0983         0.000       
     266       75.8764         0.000       
     265       75.7761         0.000       
     264       75.5611         0.000       
     263       75.1214         0.000       
     262       74.7102         0.000       
     261       74.6487         0.000       
     260       73.9411         0.000       
     259       73.8149         0.000       
     258       73.5075         0.000       
     257       72.8014         0.000       
     256       72.2951         0.000       
     255       70.5160         0.000       
     254       70.0283         0.000       
     253       68.7999         0.000       
     252       67.7551         0.000       
     251       67.4820         0.000       
     250       67.2727         0.000       
     249       66.5122         0.000       
     248       65.6096         0.000       
     247       65.3726         0.000       
     246       64.8065         0.000       
     245       64.4435         0.000       
     244       63.8610         0.000       
     243       63.4776         0.000       
     242       62.4334         0.000       
     241       62.2642         0.000       
     240       61.7739         0.000       
     239       60.7345         0.000       
     238       60.5278         0.000       
     237       59.7670         0.000       
     236       59.4118         0.000       
     235       59.1865         0.000       
     234       58.5970         0.000       
     233       58.0221         0.000       
     232       57.5688         0.000       
     231       57.1753         0.000       
     230       57.1435         0.000       
     229       57.0234         0.000       
     228       56.5713         0.000       
     227       56.0485         0.000       
     226       55.9580         0.000       
     225       55.7167         0.000       
     224       54.7803         0.000       
     223       54.2531         0.000       
     222       53.4528         0.000       
     221       53.2796         0.000       
     220       52.7290         0.000       
     219       52.0601         0.000       
     218       51.6194         0.000       
     217       51.2852         0.000       
     216       51.0480         0.000       
     215       50.6009         0.000       
     214       50.5615         0.000       
     213       49.9783         0.000       
     212       49.7503         0.000       
     211       49.1429         0.000       
     210       48.8384         0.000       
     209       48.6252         0.000       
     208       48.3681         0.000       
     207       47.9197         0.000       
     206       47.4706         0.000       
     205       46.7137         0.000       
     204       46.1227         0.000       
     203       45.9318         0.000       
     202       45.2474         0.000       
     201       44.8546         0.000       
     200       44.3977         0.000       
     199       44.3153         0.000       
     198       44.0251         0.000       
     197       43.7754         0.000       
     196       43.2502         0.000       
     195       42.6993         0.000       
     194       42.2460         0.000       
     193       41.4460         0.000       
     192       41.4139         0.000       
     191       40.9111         0.000       
     190       40.6233         0.000       
     189       40.1666         0.000       
     188       39.9658         0.000       
     187       39.7999         0.000       
     186       39.1990         0.000       
     185       38.8514         0.000       
     184       38.3448         0.000       
     183       38.1774         0.000       
     182       37.8264         0.000       
     181       37.5878         0.000       
     180       37.2136         0.000       
     179       36.7241         0.000       
     178       36.5330         0.000       
     177       36.3928         0.000       
     176       35.8388         0.000       
     175       35.4241         0.000       
     174       34.5578         0.000       
     173       34.4444         0.000       
     172       34.1783         0.000       
     171       34.0227         0.000       
     170       33.8068         0.000       
     169       33.0645         0.000       
     168       32.8821         0.000       
     167       32.2849         0.000       
     166       32.1500         0.000       
     165       31.7857         0.000       
     164       31.4291         0.000       
     163       31.2739         0.000       
     162       30.9997         0.000       
     161       30.4311         0.000       
     160       30.1204         0.000       
     159       29.8846         0.000       
     158       29.6731         0.000       
     157       29.6416         0.000       
     156       28.9500         0.000       
     155       28.5737         0.000       
     154       28.2398         0.000       
     153       28.1752         0.000       
     152       27.8281         0.000       
     151       27.2635         0.000       
     150       27.0639         0.000       
     149       26.8576         0.000       
     148       26.6466         0.000       
     147       26.3622         0.000       
     146       26.0797         0.000       
     145       25.8027         0.000       
     144       25.5948         0.000       
     143       25.3904         0.000       
     142       24.9237         0.000       
     141       24.5503         0.000       
     140       24.4062         0.000       
     139       24.2210         0.000       
     138       23.4897         0.000       
     137       22.6970         0.000       
     136       22.3482         0.000       
     135       22.1650         0.000       
     134       21.5885         0.000       
     133       21.0273         0.000       
     132       20.4183         0.000       
     131       20.0922         0.000       
     130       19.8823         0.000       
     129       19.4960         0.000       
     128       19.0353         0.000       
     127       18.5696         0.000       
     126       18.0646         0.000       
     125       17.0577         0.000       
     124       16.4975         0.000       
     123       16.2408         0.000       
     122       15.9906         0.000       
     121       15.2701         0.000       
     120       14.9424         0.000       
     119       14.7566         0.000       
     118       14.3131         0.000       
     117       13.7478         0.000       
     116       13.5683         0.000       
     115       13.1845         0.000       
     114       12.6384         0.000       
     113       12.5277         0.000       
     112       12.3223         0.000       
     111       12.0175         0.000       
     110       11.9506         0.000       
     109       11.5262         0.000       
     108       11.4409         0.000       
     107       11.3470         0.000       
     106       11.1839         0.000       
     105       11.0091         0.000       
     104       10.7134         0.000       
     103       10.3868         0.000       
     102       10.3226         0.000       
     101       10.0029         0.000       
     100        9.8631         0.000       
      99        9.6887         0.000       
      98        9.5820         0.000       
      97        9.4958         0.000       
      96        9.3290         0.000       
      95        9.2456         0.000       
      94        9.1241         0.000       
      93        8.7813         0.000       
      92        8.4782         0.000       
      91        8.1575         0.000       
      90        7.7076         0.000       
      89        7.6509         0.000       
      88        7.4427         0.000       
      87        7.2759         0.000       
      86        6.8957         0.000       
      85        6.6472         0.000       
      84        6.3664         0.000       
      83        6.2157         0.000       
      82        6.1023         0.000       
      81        5.7135         0.000       
      80        5.5514         0.000       
      79        5.4434         0.000       
      78        5.3756         0.000       
      77        4.9694         0.000       
      76        4.8272         0.000       
      75        4.5931         0.000       
      74        4.4794         0.000       
      73        4.4262         0.000       
      72        4.0782         0.000       
      71        3.8107         0.000       
      70        3.5821         0.000       
      69        3.3402         0.000       
      68        3.0209         0.000       
      67        2.5873         0.000       
      66        2.2948         0.000       
      65        2.0744         0.000       
      64        1.9002         0.000       
      63        1.8053         0.000       
      62        1.7536         0.000       
      61        1.6604         0.000       
      60        1.5007         0.000       
      59        1.4202         0.000       
      58        1.0986         0.000       
      57        0.8839         0.000       
      56        0.7591         0.000       
      55        0.6032         0.000       
      54        0.3973         0.000       
      53        0.1887         0.000       
      52        0.0498         0.000       
      51       -0.4866         0.000       
      50       -1.6091         0.000 < LUMO
      49       -5.2519         2.000 < HOMO
      48       -5.8580         2.000       
      47       -6.6513         2.000       
      46       -7.4243         2.000       
      45       -7.7759         2.000       
      44       -7.9446         2.000       
      43       -8.0832         2.000       
      42       -8.1903         2.000       
      41       -8.4044         2.000       
      40       -8.5906         2.000       
      39       -8.7309         2.000       
      38       -9.0433         2.000       
      37       -9.2439         2.000       
      36       -9.7084         2.000       
      35      -10.2967         2.000       
      34      -10.4684         2.000       
      33      -10.7973         2.000       
      32      -10.8982         2.000       
      31      -11.1203         2.000       
      30      -11.4278         2.000       
      29      -11.7154         2.000       
      28      -12.0067         2.000       
      27      -12.7047         2.000       
      26      -13.3211         2.000       
      25      -13.8267         2.000       
      24      -14.0133         2.000       
      23      -14.9177         2.000       
      22      -16.7415         2.000       
      21      -17.4386         2.000       
      20      -17.6789         2.000       
      19      -18.0658         2.000       
      18      -18.9820         2.000       
      17      -21.8995         2.000       
      16      -24.4906         2.000       
      15      -26.6141         2.000       
      14      -26.8254         2.000       
      13     -269.8480         2.000       
      12     -269.8726         2.000       
      11     -270.0527         2.000       
      10     -270.1658         2.000       
       9     -270.1671         2.000       
       8     -270.6085         2.000       
       7     -270.9867         2.000       
       6     -271.7401         2.000       
       5     -271.8586         2.000       
       4     -272.7747         2.000       
       3     -510.4637         2.000       
       2     -512.0265         2.000       
       1     -512.7047         2.000       

AMS application finished. Exiting.
NORMAL TERMINATION
     Total cpu time:    2517.48
  Total system time:      12.79
 Total elapsed time:    2542.33
NORMAL TERMINATION
