
                                 *****************
                                 * O   R   C   A *
                                 *****************

                                            #,                                       
                                            ###                                      
                                            ####                                     
                                            #####                                    
                                            ######                                   
                                           ########,                                 
                                     ,,################,,,,,                         
                               ,,#################################,,                 
                          ,,##########################################,,             
                       ,#########################################, ''#####,          
                    ,#############################################,,   '####,        
                  ,##################################################,,,,####,       
                ,###########''''           ''''###############################       
              ,#####''   ,,,,##########,,,,          '''####'''          '####       
            ,##' ,,,,###########################,,,                        '##       
           ' ,,###''''                  '''############,,,                           
         ,,##''                                '''############,,,,        ,,,,,,###''
      ,#''                                            '''#######################'''  
     '                                                          ''''####''''         
             ,#######,   #######,   ,#######,      ##                                
            ,#'     '#,  ##    ##  ,#'     '#,    #''#        ,####,    ,#,          
            ##       ##  ##   ,#'  ##            #'  '#       #'       ,# #          
            ##       ##  #######   ##           ,######,      #####,      #          
            '#,     ,#'  ##    ##  '#,     ,#' ,#      #,     #,   #      #          
             '#######'   ##     ##  '#######'  #'      '#     '####' #    #          



                #########################################################
                #                        -***-                          #
                #          Department of theory and spectroscopy        #
                #                                                       #
                #                      Frank Neese                      #
                #                                                       #
                #     Directorship, Architecture, Infrastructure        #
                #                    SHARK, DRIVERS                     #
                #        Core code/Algorithms in most modules           #
                #                                                       #
                #        Max Planck Institute fuer Kohlenforschung      #
                #                Kaiser Wilhelm Platz 1                 #
                #                 D-45470 Muelheim/Ruhr                 #
                #                      Germany                          #
                #                                                       #
                #                  All rights reserved                  #
                #                        -***-                          #
                #########################################################


                         Program Version 6.1.1  -  RELEASE   -
                                (GIT: $487d211c$)
                          ($2025-11-21 10:33:24 +0100$)


 With contributions from (in alphabetic order):
[Max-Planck-Institut fuer Kohlenforschung]                               
  Daniel Aravena         : Magnetic Suceptibility                        
  Michael Atanasov       : Ab Initio Ligand Field Theory (pilot matlab implementation)
  Alexander A. Auer      : GIAO ZORA, VPT2 properties, NMR spectrum      
  Ute Becker             : All parallelization in ORCA, NUMFREQ, NUMCALC 
  Giovanni Bistoni       : ED, misc. LED, open-shell LED, HFLD           
  Dmytro Bykov           : pre 5.0 version of the SCF Hessian            
  Marcos Casanova-Páez   : Triplet and SCS-CIS(D). UHF-(DLPNO)-IP/EA/STEOM-CCSD. UHF-CVS-IP/STEOM-CCSD   
  Vijay G. Chilkuri      : MRCI spin determinant printing, contributions to CSF-ICE 
  Pauline Colinet        : FMM embedding                                 
  Dipayan Datta          : RHF DLPNO-CCSD density                        
  Achintya Kumar Dutta   : EOM-CC, STEOM-CC                              
  Nicolas Foglia         : Exact transition moments, OPA infrastructure, MCD improvements    
  Dmitry Ganyushin       : Spin-Orbit,Spin-Spin,Magnetic field MRCI      
  Miquel Garcia-Rates    : C-PCM and meta-GGA Hessian, CCSD/C-PCM, Gaussian charge scheme 
  Tiago L. C. Gouveia    : GS-ROHF, GS-ROCIS                             
  Yang Guo               : DLPNO-NEVPT2, F12-NEVPT2, CIM, IAO-localization        
  Andreas Hansen         : Spin unrestricted coupled pair/coupled cluster methods 
  Ingolf Harden          : AUTO-CI MPn and infrastructure                
  Benjamin Helmich-Paris : MC-RPA, TRAH-(SCF,CASSCF), AVAS, COSX integrals, SCF dyn. polar., MC-PDFT, srDFT 
  Lee Huntington         : MR-EOM, pCC                                   
  Robert Izsak           : Overlap fitted RIJCOSX, COSX-SCS-MP3, EOM     
  Riya Kayal             : Wick's Theorem for AUTO-CI, AUTO-CI UHF-CCSDT 
  Emily Kempfer          : AUTO-CI RHF CISDT and CCSDT, approximate NEVPT4
  Christian Kollmar      : KDIIS, OOCD, Brueckner-CCSD(T), CCSD density, CASPT2, CASPT2-K, improved NEVPT2 
  Axel Koslowski         : Symmetry handling                             
  Simone Kossmann        : meta-GGA functionals, TD-DFT gradient, OOMP2, (MP2 Hessian; deprecated post 5.0) 
  Lucas Lang             : DCDCAS, Hyperfine gauge corrections, ICE-SOC+SSC
  Marvin Lechner         : AUTO-CI (C++ implementation), FIC-MRCC        
  Spencer Leger          : CASSCF response                               
  Dagmar Lenk            : GEPOL surface, SMD, ORCA-2-JSON               
  Dimitrios Liakos       : Extrapolation schemes; Compound Job, Property file
  Dimitrios Manganas     : Further ROCIS development; embedding schemes. LFT, Crystal Embedding 
  Dimitrios Pantazis     : SARC Basis sets                               
  Anastasios Papadopoulos: AUTO-CI, single reference methods and gradients 
  Taras Petrenko         : pre 6.0 DFT Hessian and TD-DFT gradient,  ECA, NRVS 
  Petra Pikulova         : Analytic Raman intensities                    
  Peter Pinski           : DLPNO-MP2, DLPNO-MP2 Gradient                 
  Shashank Vittal Rao    : ES-AILFT, MagRelax                            
  Christoph Reimann      : Effective Core Potentials                     
  Marius Retegan         : Local ZFS, SOC                                
  Christoph Riplinger    : Optimizer, TS searches, QM/MM, DLPNO-CCSD(T), (RO)-DLPNO pert. Triples 
  Michael Roemelt        : Original ROCIS implementation, recursive CI coupling coefficients
  Masaaki Saitow         : Open-shell DLPNO-CCSD energy and density      
  Barbara Sandhoefer     : DKH picture change effects                    
  Yorick L. A. Schmerwitz: GMF and freeze-and-release deltaSCF, NEB S-IDPP initial path                    
  Kantharuban Sivalingam : CASSCF convergence/infrastructure, NEVPT2, NEVPT3, NEVPT4(SD), FIC-MRCI and CEPA variants
  Bernardo de Souza      : ESD, SOC TD-DFT                               
  Georgi L. Stoychev     : AutoAux, RI-MP2 NMR, DLPNO-MP2 response, X2C  
  Van Anh Tran           : RI-MP2 g-tensors                              
  Willem Van den Heuvel  : Paramagnetic NMR                              
  Zikuan Wang            : NOTCH, Electric field optimization            
  Frank Wennmohs         : Technical directorship and infrastructure     
  Hang Xu                : AUTO-CI-Response properties                   
                                                                         
[FACCTs GmbH]                                                            
  Markus Bursch, Nicolas Foglia, Miquel Garcia-Rates, Ingolf Harden, Hagen Neugebauer, Anastasios Papadopoulos, 
  Christoph Riplinger, Bernardo de Souza, Georgi L. Stoychev                                                    
                                                                 
  APM, various basis sets, CI-OPT, improved COSX, DLPNO-Multilevel,           
  DOCKER, DRACO, updates on ESD, Fragmentator, GOAT, IRC, LR-CPCM, L-BFGS, MBIS, meta-GGA TD-DFT gradient, ML-optimized integration grids, 
  MM, NACMEs, nearIR, NEB, NEB-TS, NL-DFT gradient (VV10), 2- and 3-layer-ONIOM, interface openCOSMO-RS, QMMM,   
  Crystal-QMMM, RESP, rigid body optimization, SF, symmetry and pop. for TD-DFT, various functionals, SOLVATOR                                   
                                                                         
[Other institutions]                                                     
  V. Asgeirsson          : NEB                                           
  Christoph Bannwarth    : sTDA-DFT, sTD-DFT, PBEh-3c, B97-3c, D3        
  Giovanni Bistoni       : ETS/NOCV, ADLD/ADEX, COVALED                  
  Martin Brehm           : Molecular dynamics                            
  Ronald Cardenas        : ETS/NOCV                                      
  Martina Colucci        : COVALED                                       
  Sebastian Ehlert       : rSCAN, r2SCAN, r2SCAN-3c, D4, dhf basis sets  
  Marvin Friede          : D4 for Fr, Ra, Ac-Lr                          
  Lars Goerigk           : TD-DFT with DH, B97 family of functionals     
  Stefan Grimme          : VdW corrections, initial TS optimization, DFT functionals, gCP, sTDA/sTD-DF 
  Waldemar Hujo          : DFT-NL                                        
  H. Jonsson             : NEB                                           
  Holger Kruse           : gCP                                           
  Marcel Mueller         : wB97X-3c, vDZP basis set                      
  Hagen Neugebauer       : wr2SCAN, Native XTB                           
  Gianluca Regni         : ADLD/ADEX                                     
  Tobias Risthaus        : pre 6.0 range-separated hybrid DFT and stability analysis
  Lukas Wittmann         : regularized MP2, r2SCAN double-hybrids, wr2SCAN        
                                                                         
We gratefully acknowledge several colleagues who have allowed us to      
interface, adapt or use parts of their codes:                            
  Ed Valeev, F. Pavosevic, A. Kumar             : LibInt (2-el integral package), F12 methods 
  Garnet Chan, S. Sharma, J. Yang, R. Olivares  : DMRG                   
  Ulf Ekstrom                                   : XCFun DFT Library      
  Mihaly Kallay                                 : mrcc  (arbitrary order and MRCC methods)
  Frank Weinhold                                : gennbo (NPA and NBO analysis)           
  Simon Mueller                                 : openCOSMO-RS                            
  Christopher J. Cramer and Donald G. Truhlar   : smd solvation model                     
  S Lehtola, MJT Oliveira, MAL Marques          : LibXC Library                           
  Liviu Ungur et al                             : ANISO software                          


 Your calculation uses the libint2 library for the computation of 2-el integrals
 For citations please refer to: http://libint.valeyev.net

 Your ORCA version has been built with support for libXC version: 7.0.0
 For citations please refer to: https://libxc.gitlab.io

 This ORCA versions uses:
   CBLAS   interface :  Fast vector & matrix operations
   LAPACKE interface :  Fast linear algebra routines
   SCALAPACK package :  Parallel linear algebra routines
   Shared memory     :  Shared parallel matrices
   BLAS/LAPACK       :  OpenBLAS 0.3.29  USE64BITINT DYNAMIC_ARCH NO_AFFINITY SkylakeX SINGLE_THREADED
        Core in use  :  SkylakeX
   Copyright (c) 2011-2014, The OpenBLAS Project


  ***********************************
  * Starting time: Fri May 22 23:48:17 2026
  * Host name:     n047.hpc
  * Process ID:    3090762
  * Working dir.:  /gpfs/home1/yeseo1ee/projects/v1-claisen-asr/runs/i/orca
  ***********************************

NOTE: MaxCore=4000 MB was set to SCF,MP2,MDCI,CIPSI,MRCI,RASCI and CIS
      => If you want to overwrite this, your respective input block should be placed after the MaxCore statement


***************************************
The coordinates will be read from file: ../build/mol.xyz
***************************************


Your calculation utilizes the atom-pairwise dispersion correction
based on EEQ partial charges (D4)


================================================================================

cite the ECPs for C  [vDZP-ECP], I  [vDZP-ECP], O  [vDZP-ECP] as follows:
   B-Ne (ecp-2-mwb), Al-Ar (ecp-10-mwb), Ga-Kr (ecp-28-mwb), Y-Cd (ecp-28-mwb), In-Xe (ecp-46-mwb):
     A. Bergner, M. Dolg, W. Küchle, H. Stoll, and H. Preuß, Mol. Phys. 80, 1431 (1993)., T. Leininger, A. Berning, A. Nicklass, H. Stoll, H.-J. Werner, and H.-J.Flad, Chem. Phys. 217, 19 (1997).
   Na-Mg, K-Ca, Rb-Sr, Cs-Ba (CRENBL):
     L. Fernandez Pacios and P. A. Christiansen, J. Chem. Phys. 82, 2664 (1985)., M. M. Hurley, L. F. Pacios, P. A. Christiansen, R. B. Ross, and W. C. Ermler, J. Chem. Phys. 84, 6840 (1986)., L. A. LaJohn, P. A. Christiansen, R. B. Ross, T. Atashroo, and W. C. Ermler, J. Chem. Phys. 87, 2812 (1987)., R. B. Ross, J. M. Powers, T. Atashroo, W. C. Ermler, L. A. LaJohn, and P. A. Christiansen, J. Chem. Phys. 93, 6654 (1990). 
   Sc-Zn (ecp-10-mdf):
     M. Dolg, U. Wedig, H. Stoll, and H. Preuss, J. Chem. Phys. 86, 866 (1986). 
   Y-Cd (ecp-28-mwb), Hf-Hg (ecp-60-mwb):
     D. Andrae, U. Häußermann, M. Dolg, H. Stoll, and H. Preuß, Theor. Chim. Acta 77, 123 (1990). 
   La (ecp-46-mwb):
     M. Dolg, H. Stoll, and H. Preuss, J. Chem. Phys. 90, 1730 (1989)., M. Dolg, H. Stoll, and H. Preuss, Theor. Chim. Acta 85, 441 (1993).
   Ce-Lu (SBKJC-ecp):
     T. R. Cundari and W. J. Stevens, J. Chem. Phys. 98, 5555 (1993).
   Tl-Rn (ecp-78-mwb):
     W. Küchle, M. Dolg, H. Stoll, and H. Preuss, Mol. Phys. 74, 1245 (1991).

ECP parameters for C  [vDZP-ECP], I  [vDZP-ECP], O  [vDZP-ECP] have been obtained from:
MM, AH, SG, J. Chem. Phys. 158, 014103 (2023), 10.1063/5.0133026

----- Orbital basis set information -----
Your calculation utilizes the basis: vDZP
   Marcel Mueller, Andreas Hansen, Stefan Grimme 
   J. Chem. Phys. 158, 014103 (2023). DOI: 10.1063/5.0133026

----- AuxJ basis set information -----
Your calculation utilizes the auxiliary basis: def2/J
   H-Rn: F. Weigend, Phys. Chem. Chem. Phys. 8, 1057 (2006).
   Fr-Lr: K. Eichkorn, F. Weigend, O. Treutler, R. Ahlrichs; Theor. Chem. Acc. 97, 119 (1997).

================================================================================
                                        WARNINGS
                       Please study these warnings very carefully!
================================================================================

WARNING: Frozen-Core approximation turned on, but there are no core electrons.
  ===> : Turning off frozen-core approximation


WARNING: Geometry Optimization
  ===> : Switching off AutoStart
         For restart on a previous wavefunction, please use MOREAD

================================================================================
                                       INPUT FILE
================================================================================
NAME = reactant.inp
|  1> ! wB97X-3c Opt Freq TightSCF
|  2> %pal nprocs 8 end
|  3> %maxcore 4000
|  4> * xyzfile 0 1 ../build/mol.xyz
|  5> 
|  6>                          ****END OF INPUT****
================================================================================

                       *****************************
                       * Geometry Optimization Run *
                       *****************************

Geometry optimization settings:
Update method            Update   .... BFGS
Choice of coordinates    CoordSys .... (2022) Redundant Internals
Initial Hessian          InHess   .... Almloef's Model
Max. no of cycles        MaxIter  .... 50

Convergence Tolerances:
Energy Change            TolE     ....  5.0000e-06 Eh
Max. Gradient            TolMAXG  ....  3.0000e-04 Eh/bohr
RMS Gradient             TolRMSG  ....  1.0000e-04 Eh/bohr
Max. Displacement        TolMAXD  ....  4.0000e-03 bohr
RMS Displacement         TolRMSD  ....  2.0000e-03 bohr
Strict Convergence                .... False

------------------------------------------------------------------------------
                        ORCA OPTIMIZATION COORDINATE SETUP
------------------------------------------------------------------------------

The optimization will be done in redundant internal coordinates (2022)
Making redundant internal coordinates   ...  (2022 redundants) done
Evaluating the initial hessian          ...  (Almloef) done
Evaluating the coordinates              ...  done
Calculating the B-matrix                .... done
Calculating the G-matrix                .... done
The number of degrees of freedom        ....   50

    -----------------------------------------------------------------
                    Redundant Internal Coordinates


    -----------------------------------------------------------------
         Definition                    Initial Value    Approx d2E/dq
    -----------------------------------------------------------------
      1. B(C   1,C   0)                  1.3377         0.757201   
      2. B(I   2,C   1)                  2.0604         0.178934   
      3. B(O   3,C   1)                  1.3815         0.577373   
      4. B(C   4,O   3)                  1.4298         0.483499   
      5. B(C   5,C   4)                  1.5053         0.409040   
      6. B(C   6,C   5)                  1.3404         0.749684   
      7. B(H   7,C   0)                  1.0849         0.366858   
      8. B(H   8,C   0)                  1.0842         0.367847   
      9. B(H   9,C   4)                  1.0959         0.352332   
     10. B(H  10,C   4)                  1.0975         0.350376   
     11. B(H  11,C   5)                  1.0880         0.362801   
     12. B(H  12,C   6)                  1.0854         0.366222   
     13. B(H  13,C   6)                  1.0861         0.365248   
     14. A(H   7,C   0,H   8)          117.4105         0.292670   
     15. A(C   1,C   0,H   7)          120.2575         0.366289   
     16. A(C   1,C   0,H   8)          122.3296         0.366458   
     17. A(C   0,C   1,I   2)          121.0074         0.384674   
     18. A(I   2,C   1,O   3)          119.0673         0.364786   
     19. A(C   0,C   1,O   3)          119.6172         0.441340   
     20. A(C   1,O   3,C   4)          111.5609         0.404704   
     21. A(H   9,C   4,H  10)          109.0536         0.288605   
     22. A(C   5,C   4,H  10)          108.2530         0.327716   
     23. A(O   3,C   4,H  10)          110.2987         0.334885   
     24. A(C   5,C   4,H   9)          108.2560         0.328017   
     25. A(O   3,C   4,H   9)          110.1062         0.335194   
     26. A(O   3,C   4,C   5)          110.8138         0.383434   
     27. A(C   4,C   5,H  11)          115.0287         0.329606   
     28. A(C   4,C   5,C   6)          126.8138         0.416861   
     29. A(C   6,C   5,H  11)          118.1574         0.364968   
     30. A(H  12,C   6,H  13)          117.3422         0.292263   
     31. A(C   5,C   6,H  13)          121.7657         0.365388   
     32. A(C   5,C   6,H  12)          120.8919         0.365555   
     33. D(I   2,C   1,C   0,H   8)      3.0941         0.040965   
     34. D(O   3,C   1,C   0,H   8)    176.6602         0.040965   
     35. D(I   2,C   1,C   0,H   7)   -176.3358         0.040965   
     36. D(O   3,C   1,C   0,H   7)     -2.7697         0.040965   
     37. D(C   4,O   3,C   1,I   2)    -80.8058         0.024232   
     38. D(C   4,O   3,C   1,C   0)    105.5029         0.024232   
     39. D(C   5,C   4,O   3,C   1)   -170.7776         0.018447   
     40. D(H  10,C   4,O   3,C   1)    -50.9179         0.018447   
     41. D(H   9,C   4,O   3,C   1)     69.4840         0.018447   
     42. D(H  11,C   5,C   4,H   9)    -59.1493         0.012394   
     43. D(H  11,C   5,C   4,O   3)   -179.9897         0.012394   
     44. D(C   6,C   5,C   4,H  10)   -121.1497         0.012394   
     45. D(C   6,C   5,C   4,H   9)    120.7666         0.012394   
     46. D(C   6,C   5,C   4,O   3)     -0.0738         0.012394   
     47. D(H  12,C   6,C   5,C   4)   -179.9032         0.040078   
     48. D(H  13,C   6,C   5,H  11)    179.8305         0.040078   
     49. D(H  13,C   6,C   5,C   4)     -0.0831         0.040078   
     50. D(H  12,C   6,C   5,H  11)      0.0103         0.040078   
    -----------------------------------------------------------------

Number of atoms                         .... 14
Number of degrees of freedom            .... 50


         *************************************************************
         *                GEOMETRY OPTIMIZATION CYCLE   1            *
         *************************************************************
---------------------------------
CARTESIAN COORDINATES (ANGSTROEM)
---------------------------------
  C      2.422106    0.978059   -0.037281
  C      1.662717    0.097161    0.623579
  I      2.508797   -1.311521    1.866521
  O      0.286812    0.212819    0.578665
  C     -0.296766   -0.781775   -0.266625
  C     -1.760948   -0.507513   -0.483223
  C     -2.470708    0.510975    0.022331
  H      1.961127    1.752032   -0.641893
  H      3.505120    0.960771    0.010512
  H     -0.197187   -1.771939    0.192435
  H      0.200040   -0.788945   -1.245161
  H     -2.274649   -1.225647   -1.118884
  H     -3.528637    0.615793   -0.196569
  H     -2.017824    1.259729    0.665724

----------------------------
CARTESIAN COORDINATES (A.U.)
----------------------------
  NO LB      ZA    FRAG     MASS         X           Y           Z
   0 C     4.0000*   0    12.011    4.577117    1.848264   -0.070451
   1 C     4.0000*   0    12.011    3.142080    0.183608    1.178394
   2 I     7.0000*   0   126.900    4.740939   -2.478416    3.527214
   3 O     6.0000*   0    15.999    0.541996    0.402170    1.093518
   4 C     4.0000*   0    12.011   -0.560806   -1.477341   -0.503848
   5 C     4.0000*   0    12.011   -3.327709   -0.959061   -0.913159
   6 C     4.0000*   0    12.011   -4.668961    0.965603    0.042199
   7 H     1.0000    0     1.008    3.705993    3.310861   -1.213002
   8 H     1.0000    0     1.008    6.623717    1.815594    0.019865
   9 H     1.0000    0     1.008   -0.372629   -3.348479    0.363649
  10 H     1.0000    0     1.008    0.378021   -1.490890   -2.353013
  11 H     1.0000    0     1.008   -4.298464   -2.316137   -2.114384
  12 H     1.0000    0     1.008   -6.668158    1.163680   -0.371462
  13 H     1.0000    0     1.008   -3.813135    2.380543    1.258036
* core charge reduced due to ECP

--------------------------------
INTERNAL COORDINATES (ANGSTROEM)
--------------------------------
 C      0   0   0     0.000000000000     0.00000000     0.00000000
 C      1   0   0     1.337680410010     0.00000000     0.00000000
 I      2   1   0     2.060374033735   121.00737797     0.00000000
 O      2   1   3     1.381487824552   119.61722855   173.56610664
 C      4   2   1     1.429788687541   111.56093757   105.50286295
 C      5   4   2     1.505311684460   110.81379544   189.22240594
 C      6   5   4     1.340396176755   126.81383432   359.92618473
 H      1   2   3     1.084938483839   120.25754648   183.66417464
 H      1   2   3     1.084205870667   122.32959273     3.09407658
 H      5   4   2     1.095936498040   110.10623228    69.48396338
 H      5   4   2     1.097451736448   110.29874630   309.08209661
 H      6   5   4     1.087966022575   115.02872470   180.01029876
 H      7   6   5     1.085411346986   120.89193496   180.09678380
 H      7   6   5     1.086135821351   121.76565224   359.91690123

---------------------------
INTERNAL COORDINATES (A.U.)
---------------------------
 C      0   0   0     0.000000000000     0.00000000     0.00000000
 C      1   0   0     2.527849629631     0.00000000     0.00000000
 I      2   1   0     3.893542657201   121.00737797     0.00000000
 O      2   1   3     2.610633645750   119.61722855   173.56610664
 C      4   2   1     2.701909048831   111.56093757   105.50286295
 C      5   4   2     2.844626829821   110.81379544   189.22240594
 C      6   5   4     2.532981685022   126.81383432   359.92618473
 H      1   2   3     2.050236606607   120.25754648   183.66417464
 H      1   2   3     2.048852168350   122.32959273     3.09407658
 H      5   4   2     2.071019841465   110.10623228    69.48396338
 H      5   4   2     2.073883227082   110.29874630   309.08209661
 H      6   5   4     2.055957825679   115.02872470   180.01029876
 H      7   6   5     2.051130188453   120.89193496   180.09678380
 H      7   6   5     2.052499246594   121.76565224   359.91690123

---------------------
BASIS SET INFORMATION
---------------------
There are 4 groups of distinct atoms

 Group   1 Type C   : 6s6p2d contracted to 2s2p1d pattern {42/42/2}
 Group   2 Type I   : 6s6p2d contracted to 2s2p1d pattern {42/42/2}
 Group   3 Type O   : 6s6p2d contracted to 2s2p1d pattern {42/42/2}
 Group   4 Type H   : 8s2p contracted to 2s1p pattern {53/2}

Atom   0C    basis set group =>   1
Atom   1C    basis set group =>   1
Atom   2I    basis set group =>   2
Atom   3O    basis set group =>   3
Atom   4C    basis set group =>   1
Atom   5C    basis set group =>   1
Atom   6C    basis set group =>   1
Atom   7H    basis set group =>   4
Atom   8H    basis set group =>   4
Atom   9H    basis set group =>   4
Atom  10H    basis set group =>   4
Atom  11H    basis set group =>   4
Atom  12H    basis set group =>   4
Atom  13H    basis set group =>   4
---------------------------------
AUXILIARY/J BASIS SET INFORMATION
---------------------------------
There are 4 groups of distinct atoms

 Group   1 Type C   : 12s5p4d2f1g contracted to 6s4p3d1f1g pattern {711111/2111/211/2/1}
 Group   2 Type I   : 11s5p5d3f1g contracted to 8s4p3d2f1g pattern {41111111/2111/311/21/1}
 Group   3 Type O   : 12s5p4d2f1g contracted to 6s4p3d1f1g pattern {711111/2111/211/2/1}
 Group   4 Type H   : 5s2p1d contracted to 3s1p1d pattern {311/2/1}

Atom   0C    basis set group =>   1
Atom   1C    basis set group =>   1
Atom   2I    basis set group =>   2
Atom   3O    basis set group =>   3
Atom   4C    basis set group =>   1
Atom   5C    basis set group =>   1
Atom   6C    basis set group =>   1
Atom   7H    basis set group =>   4
Atom   8H    basis set group =>   4
Atom   9H    basis set group =>   4
Atom  10H    basis set group =>   4
Atom  11H    basis set group =>   4
Atom  12H    basis set group =>   4
Atom  13H    basis set group =>   4
-------------------------
ECP PARAMETER INFORMATION
-------------------------

 Group 1, Type C  ECP vDZP-ECP (replacing 2 core electrons, lmax=3)
 Group 2, Type I  ECP vDZP-ECP (replacing 46 core electrons, lmax=4)
 Group 3, Type O  ECP vDZP-ECP (replacing 2 core electrons, lmax=3)

Atom   0C    ECP group =>   1
Atom   1C    ECP group =>   1
Atom   2I    ECP group =>   2
Atom   3O    ECP group =>   3
Atom   4C    ECP group =>   1
Atom   5C    ECP group =>   1
Atom   6C    ECP group =>   1



           ************************************************************
           *        Program running with 8 parallel MPI-processes     *
           *              working on a common directory               *
           ************************************************************
------------------------------------------------------------------------------
                             ORCA STARTUP CALCULATIONS
                           -- RI-GTO INTEGRALS CHOSEN --
------------------------------------------------------------------------------
------------------------------------------------------------------------------
                   ___                                                        
                  /   \      - P O W E R E D   B Y -                         
                 /     \                                                     
                 |  |  |   _    _      __       _____    __    __             
                 |  |  |  | |  | |    /  \     |  _  \  |  |  /  |          
                  \  \/   | |  | |   /    \    | | | |  |  | /  /          
                 / \  \   | |__| |  /  /\  \   | |_| |  |  |/  /          
                |  |  |   |  __  | /  /__\  \  |    /   |      \           
                |  |  |   | |  | | |   __   |  |    \   |  |\   \          
                \     /   | |  | | |  |  |  |  | |\  \  |  | \   \       
                 \___/    |_|  |_| |__|  |__|  |_| \__\ |__|  \__/        
                                                                              
                      - O R C A' S   B I G   F R I E N D -                    
                                      &                                       
                       - I N T E G R A L  F E E D E R -                       
                                                                              
 v1 FN, 2020, v2 2021, v3 2022-2024                                           
------------------------------------------------------------------------------


----------------------
SHARK INTEGRAL PACKAGE
----------------------

Number of atoms                             ...     14
Number of basis functions                   ...    126
Number of shells                            ...     56
Maximum angular momentum                    ...      2
Integral batch strategy                     ... SHARK/LIBINT Hybrid
RI-J (if used) integral strategy            ... SPLIT-RIJ (Revised 2003 algorithm where possible)
Printlevel                                  ...      1
Contraction scheme used                     ... SEGMENTED contraction
Prescreening option                         ... SCHWARTZ
   Thresh                                   ... 2.500e-11
   Tcut                                     ... 2.500e-12
   Tpresel                                  ... 2.500e-12 
Coulomb Range Separation                    ... NOT USED
Exchange Range Separation                   ... Long Range
   Mu parameter                             ... 3.000e-01
   Scaling (regular/separated)              ... 1.670e-01 8.330e-01
Robust (split-)RI terms used:
  metric    (central integrals)             ... YES
  density   (r.h.s.  integrals)             ... YES
  potential (l.h.s.  integrals)             ... YES
Multipole approximations                    ... NOT USED
Finite Nucleus Model                        ... NOT USED
CABS basis                                  ... NOT available
Auxiliary Coulomb fitting basis             ... AVAILABLE
   # of basis functions in Aux-J            ...    429
   # of shells in Aux-J                     ...    143
   Maximum angular momentum in Aux-J        ...      4
Auxiliary J/K fitting basis                 ... NOT available
Auxiliary Correlation fitting basis         ... NOT available
Auxiliary 'external' fitting basis          ... NOT available

Checking pre-screening integrals            ... done (  0.0 sec) Dimension = 56
   => SHARK Basis and OBASIS are compatible. Storing Pre-screening
Shell pair information
Shell pair cut-off parameter TPreSel        ...   2.5e-12
Total number of shell pairs                 ...      1596
Shell pairs after pre-screening             ...      1596
Total number of primitive shell pairs       ...     14399
Primitive shell pairs kept                  ...     12497
          la=0 lb=0:    406 shell pairs
          la=1 lb=0:    588 shell pairs
          la=1 lb=1:    231 shell pairs
          la=2 lb=0:    196 shell pairs
          la=2 lb=1:    147 shell pairs
          la=2 lb=2:     28 shell pairs

Checking whether 4 symmetric matrices of dimension 126 fit in memory
:Max Core in MB      =   4000.00
 MB in use           =      6.76
 MB left             =   3993.24
 MB needed           =      0.24
 Data fit in memory  = YES
Calculating RI/J V-Matrix + Cholesky decomp.... done (  0.0 sec)
Calculating Nuclear repulsion               ... done (  0.0 sec) ENN=    148.699469603854 Eh

Diagonalization of the overlap matrix:
Smallest eigenvalue                        ... 1.690e-03
Time for diagonalization                   ...    0.002 sec
Threshold for overlap eigenvalues          ... 1.000e-07
Number of eigenvalues below threshold      ... 0
Time for construction of square roots      ...    0.001 sec
Total time needed                          ...    0.004 sec

-------------------
DFT GRID GENERATION
-------------------

General Integration Accuracy     IntAcc      ... 4.388
Radial Grid Type                 RadialGrid  ... OptM3 with GC (2021)
Angular Grid (max. ang.)         AngularGrid ... 4 (Lebedev-302)
Angular grid pruning method      GridPruning ... 4 (adaptive)
Weight generation scheme         WeightScheme... mBecke (2022)
Basis function cutoff            BFCut       ... 1.0000e-11
Integration weight cutoff        WCut        ... 1.0000e-14
Partially contracted basis set               ... off
Rotationally invariant grid construction     ... off
Angular grids for H and He will be reduced by one unit

Total number of grid points                  ...    70364
Total number of batches                      ...     1106
Average number of points per batch           ...       63
Average number of grid points per atom       ...     5026

--------------------
COSX GRID GENERATION
--------------------

GRIDX 1
-------
General Integration Accuracy     IntAcc      ... 3.816
Radial Grid Type                 RadialGrid  ... OptM3 with GC (2021)
Angular Grid (max. ang.)         AngularGrid ... 1 (Lebedev-50)
Angular grid pruning method      GridPruning ... 4 (adaptive)
Weight generation scheme         WeightScheme... mBecke (2022)
Basis function cutoff            BFCut       ... 1.0000e-11
Integration weight cutoff        WCut        ... 1.0000e-14
Partially contracted basis set               ... on
Rotationally invariant grid construction     ... off
Angular grids for H and He will be reduced by one unit

Total number of grid points                  ...    13420
Total number of batches                      ...      112
Average number of points per batch           ...      119
Average number of grid points per atom       ...      959
UseSFitting                                  ... on

GRIDX 2
-------
General Integration Accuracy     IntAcc      ... 4.020
Radial Grid Type                 RadialGrid  ... OptM3 with GC (2021)
Angular Grid (max. ang.)         AngularGrid ... 2 (Lebedev-110)
Angular grid pruning method      GridPruning ... 4 (adaptive)
Weight generation scheme         WeightScheme... mBecke (2022)
Basis function cutoff            BFCut       ... 1.0000e-11
Integration weight cutoff        WCut        ... 1.0000e-14
Partially contracted basis set               ... on
Rotationally invariant grid construction     ... off
Angular grids for H and He will be reduced by one unit

Total number of grid points                  ...    22180
Total number of batches                      ...      179
Average number of points per batch           ...      123
Average number of grid points per atom       ...     1584
UseSFitting                                  ... on

GRIDX 3
-------
General Integration Accuracy     IntAcc      ... 4.338
Radial Grid Type                 RadialGrid  ... OptM3 with GC (2021)
Angular Grid (max. ang.)         AngularGrid ... 3 (Lebedev-194)
Angular grid pruning method      GridPruning ... 4 (adaptive)
Weight generation scheme         WeightScheme... mBecke (2022)
Basis function cutoff            BFCut       ... 1.0000e-11
Integration weight cutoff        WCut        ... 1.0000e-14
Partially contracted basis set               ... on
Rotationally invariant grid construction     ... off
Angular grids for H and He will be reduced by one unit

Total number of grid points                  ...    41716
Total number of batches                      ...      333
Average number of points per batch           ...      125
Average number of grid points per atom       ...     2980
UseSFitting                                  ... on
Grids setup in   0.8 sec
Initializing property integral containers    ... done (  0.0 sec)

SHARK setup successfully completed in   1.0 seconds

Maximum memory used throughout the entire STARTUP-calculation: 22.5 MB


           ************************************************************
           *        Program running with 8 parallel MPI-processes     *
           *              working on a common directory               *
           ************************************************************
-------------------------------------------------------------------------------
                                 ORCA GUESS
                   Start orbitals & Density for SCF / CASSCF
-------------------------------------------------------------------------------

------------
SCF SETTINGS
------------
Hamiltonian:
 Density Functional     Method          .... DFT(GTOs)
 Exchange Functional    Exchange        .... WB97X-V
 Correlation Functional Correlation     .... WB97X-V
 Gradients option       PostSCFGGA      .... off
 Hybrid DFT is turned on
   Fraction HF Exchange ScalHFX         ....  0.167000
   Scaling of DF-GGA-X  ScalDFX         ....  0.000000
   Scaling of DF-GGA-C  ScalDFC         ....  1.000000
   Scaling of DF-LDA-C  ScalLDAC        ....  1.000000
   Perturbative correction              ....  0.000000
 Long-range corrected/Screened/Range-Separated Hybrid DFT is turned on
   Amount of maximum screened exact exchange              ....  0.833000
   Range separation parameter mu (erf(mu*r12)/r12)        ....  0.300000
   NL short-range parameter             ....  6.000000
   NL long-range parameter              ....  0.010000
 RI-approximation to the Coulomb term is turned on
   Number of AuxJ basis functions       .... 429
   RIJ-COSX (HFX calculated with COS-X)).... on


General Settings:
 Integral files         IntName         .... reactant
 Hartree-Fock type      HFTyp           .... RHF
 Total Charge           Charge          ....    0
 Multiplicity           Mult            ....    1
 Number of Electrons    NEL             ....   40
 Basis Dimension        Dim             ....  126
 Nuclear Repulsion      ENuc            ....    148.6994696039 Eh

Convergence Acceleration:
 AO-DIIS                CNVDIIS         .... on
   Start iteration      DIISMaxIt       ....    12
   Startup error        DIISStart       ....  0.200000
   # of expansion vecs  DIISMaxEq       ....     5
   Bias factor          DIISBfac        ....   1.050
   Max. coefficient     DIISMaxC        ....  10.000
 MO-DIIS                CNVKDIIS        .... off
 Trust-Rad. Augm. Hess. CNVTRAH         .... auto
   Auto Start mean grad. ratio tolernc. ....  1.125000
   Auto Start start iteration           ....    50
   Auto Start num. interpolation iter.  ....    10
   Max. Number of Micro iterations      ....    24
   Max. Number of Macro iterations      .... Maxiter - #DIIS iter
   Number of Davidson start vectors     ....     2
   Converg. threshold    (grad. norm)   ....   1.000e-05
   Grad. Scal. Fac. for Micro threshold ....   0.100
   Minimum threshold for Micro iter.    ....   1.000e-02
   NR start threshold (gradient norm)   ....   1.000e-04
   Initial trust radius                 ....   0.400
   Minimum AH scaling param. (alpha)    ....   1.000
   Maximum AH scaling param. (alpha)    .... 1000.000
   Quad. conv. algorithm                .... NR
   White noise on init. David. guess    .... on
   Maximum white noise                  ....   0.010
   Pseudo random numbers                .... off
   Inactive MOs                         .... canonical
   Orbital update algorithm             .... Taylor
   Preconditioner                       .... Diag
   Full preconditioner red. dimension   ....   250
 SOSCF                 CNVSOSCF           .... on
   Start iteration     SOSCFMaxIt         ....   150
   Startup grad/error  SOSCFStart         ....  0.003300
   Hessian update      SOSCFHessUp        .... L-BFGS
   Autom. constraints  SOSCFAutoConstrain .... off
 Level Shifting         CNVShift        .... on
   Level shift para.    LevelShift      ....    0.2500
   Turn off err/grad.   ShiftErr        ....    0.0010
 Zerner damping         CNVZerner       .... off
 Static damping         CNVDamp         .... on
   Fraction old density DampFac         ....    0.7000
   Max. Damping (<1)    DampMax         ....    0.9800
   Min. Damping (>=0)   DampMin         ....    0.0000
   Turn off err/grad.   DampErr         ....    0.1000

SCF Procedure:
 Maximum # iterations   MaxIter         ....   125
 SCF integral mode      SCFMode         .... Direct
   Integral package                     .... SHARK and LIBINT hybrid scheme
 Reset frequency        DirectResetFreq ....    20
 Integral Threshold     Thresh          ....  2.500e-11 Eh
 Primitive CutOff       TCut            ....  2.500e-12 Eh

Convergence Tolerance:
 Convergence Check Mode ConvCheckMode   .... Total+1el-Energy
 Convergence forced     ConvForced      .... 0
 Energy Change          TolE            ....  1.000e-08 Eh
 1-El. energy change                    ....  1.000e-05 Eh
 Orbital Gradient       TolG            ....  1.000e-05
 Orbital Rotation angle TolX            ....  1.000e-05
 DIIS Error             TolErr          ....  5.000e-07

------------------------------
INITIAL GUESS: MODEL POTENTIAL
------------------------------
Loading Hartree-Fock densities                     ... done
Atomic calculation to generate a density for atom 0 (C  with ECP)
  Multiplicity assumed   :    1
  Atomic configuration   : 1s2 2s2 2p2 
  Number of open shells  : 1
  Command: /home1/yeseo1ee/orca6/orca_6_1_1/orca reactant_atom6.inp "" > reactant_atom6.out
Returned from the atomic calculation with res=0
Atomic calculation to generate a density for atom 2 (I  with ECP)
  Multiplicity assumed   :    2
  Atomic configuration   : 1s2 2s2 2p6 3s2 3p6 4s2 3d10 4p6 5s2 4d10 5p5 
  Number of open shells  : 1
  Command: /home1/yeseo1ee/orca6/orca_6_1_1/orca reactant_atom53.inp "" > reactant_atom53.out
Returned from the atomic calculation with res=0
Atomic calculation to generate a density for atom 3 (O  with ECP)
  Multiplicity assumed   :    3
  Atomic configuration   : 1s2 2s2 2p4 
  Number of open shells  : 1
  Command: /home1/yeseo1ee/orca6/orca_6_1_1/orca reactant_atom8.inp "" > reactant_atom8.out
Returned from the atomic calculation with res=0
Calculating cut-offs                               ... done
Initializing the effective Hamiltonian             ... done
Setting up the integral package (SHARK)            ... done
Starting the Coulomb interaction                   ... done (   0.0 sec)
Making the grid                                    ... done (   0.1 sec)
Mapping shells                                     ... done
Starting the XC term evaluation                    ... done (   0.0 sec)
  promolecular density results
     # of electrons  =     97.997897241
     EX              =   -160.391354706
     EC              =     -5.569523129
     EX+EC           =   -165.960877835
Transforming the Hamiltonian                       ... done (   0.0 sec)
Diagonalizing the Hamiltonian                      ... done (   0.0 sec)
Back transforming the eigenvectors                 ... done (   0.0 sec)
Now organizing SCF variables                       ... done
                      ------------------
                      INITIAL GUESS DONE (   1.5 sec)
                      ------------------
             **** ENERGY FILE WAS UPDATED (reactant.en.tmp) ****
Finished Guess after   1.7 sec
Maximum memory used throughout the entire GUESS-calculation: 10.5 MB


           ************************************************************
           *        Program running with 8 parallel MPI-processes     *
           *              working on a common directory               *
           ************************************************************

-------------------------------------------------------------------------------------------
                                      ORCA LEAN-SCF
                              memory conserving SCF solver
-------------------------------------------------------------------------------------------

----------------------------------------D-I-I-S--------------------------------------------
Iteration    Energy (Eh)           Delta-E    RMSDP     MaxDP     DIISErr   Damp  Time(sec)
-------------------------------------------------------------------------------------------
               ***  Starting incremental Fock matrix formation  ***
    1    -59.8490022960288570     0.00e+00  1.25e-02  7.13e-02  1.76e-01  0.700   1.9
    2    -59.9423335018357761    -9.33e-02  9.45e-03  5.37e-02  1.04e-01  0.700   1.2
                               ***Turning on AO-DIIS***
    3    -59.9916981867112895    -4.94e-02  5.31e-03  3.34e-02  5.47e-02  0.700   1.2
    4    -60.0209229357649292    -2.92e-02  1.20e-02  8.58e-02  3.43e-02  0.000   1.2
    5    -60.0831447389862490    -6.22e-02  1.26e-03  8.07e-03  3.95e-03  0.000   1.2
                              *** Initializing SOSCF ***
---------------------------------------S-O-S-C-F--------------------------------------
Iteration    Energy (Eh)           Delta-E    RMSDP     MaxDP     MaxGrad    Time(sec)
--------------------------------------------------------------------------------------
    6    -60.0834663043249861    -3.22e-04  6.36e-04  4.30e-03  3.14e-03     1.1
               *** Restarting incremental Fock matrix formation ***
    7    -60.0835931179211968    -1.27e-04  4.40e-04  3.67e-03  1.21e-03     1.9
    8    -60.0836183983672925    -2.53e-05  3.15e-04  1.63e-03  5.21e-04     1.6
    9    -60.0836295456043672    -1.11e-05  6.43e-05  3.65e-04  7.89e-05     1.6
   10    -60.0836299062705734    -3.61e-07  2.40e-05  1.68e-04  3.32e-05     1.5
   11    -60.0836299348548550    -2.86e-08  8.51e-06  5.52e-05  2.47e-05     1.4
   12    -60.0836299525799120    -1.77e-08  2.29e-06  1.30e-05  4.33e-06     1.3
   13    -60.0836299517741850     8.06e-10  8.03e-07  5.19e-06  1.91e-06     1.1
                 **** Energy Check signals convergence ****

               *****************************************************
               *                     SUCCESS                       *
               *           SCF CONVERGED AFTER  13 CYCLES          *
               *****************************************************

Recomputing exchange energy using gridx3       ... done (    3.124 sec)
Old exchange energy                            :     -7.569884932 Eh
New exchange energy                            :     -7.569877078 Eh
Exchange energy change after final integration :      0.000007854 Eh
Total energy after final integration           :    -60.083622094 Eh
             **** ENERGY FILE WAS UPDATED (reactant.en.tmp) ****

----------------
TOTAL SCF ENERGY
----------------

Total Energy       :        -60.08362209385458 Eh           -1634.95848 eV

Components:
Nuclear Repulsion  :        148.69946960385377 Eh            4046.31828 eV
Electronic Energy  :       -208.78309955183133 Eh           -5681.27697 eV
One Electron Energy:       -387.30690697776669 Eh          -10539.15674 eV
Two Electron Energy:        178.52380742593536 Eh            4857.87977 eV

Virial components:
Potential Energy   :       -101.27069410342366 Eh           -2755.71568 eV
Kinetic Energy     :         41.18707200956908 Eh            1120.75721 eV
Virial Ratio       :          2.45879809275821

DFT components:
N(Alpha)           :       19.999987617475 electrons
N(Beta)            :       19.999987617475 electrons
N(Total)           :       39.999975234950 electrons
E(X)               :       -7.969505653204 Eh       
E(C)               :       -1.470582257525 Eh       
E(XC)              :       -9.440087910728 Eh       

---------------
SCF CONVERGENCE
---------------

  Last Energy change         ...   -8.0573e-10  Tolerance :   1.0000e-08
  Last MAX-Density change    ...    5.1911e-06  Tolerance :   1.0000e-07
  Last RMS-Density change    ...    8.0344e-07  Tolerance :   5.0000e-09
  Last DIIS Error            ...    3.1431e-03  Tolerance :   5.0000e-07
  Last Orbital Gradient      ...    1.9070e-06  Tolerance :   1.0000e-05
  Last Orbital Rotation      ...    4.2818e-06  Tolerance :   1.0000e-05


----------------
ORBITAL ENERGIES
----------------

  NO   OCC          E(Eh)            E(eV) 
   0   2.0000      -1.201752       -32.7013 
   1   2.0000      -0.952095       -25.9078 
   2   2.0000      -0.910151       -24.7665 
   3   2.0000      -0.838460       -22.8156 
   4   2.0000      -0.826630       -22.4937 
   5   2.0000      -0.713587       -19.4177 
   6   2.0000      -0.674905       -18.3651 
   7   2.0000      -0.618887       -16.8408 
   8   2.0000      -0.613242       -16.6872 
   9   2.0000      -0.592610       -16.1257 
  10   2.0000      -0.556028       -15.1303 
  11   2.0000      -0.553175       -15.0527 
  12   2.0000      -0.502480       -13.6732 
  13   2.0000      -0.488567       -13.2946 
  14   2.0000      -0.462863       -12.5951 
  15   2.0000      -0.420793       -11.4504 
  16   2.0000      -0.402508       -10.9528 
  17   2.0000      -0.370359       -10.0780 
  18   2.0000      -0.367014        -9.9869 
  19   2.0000      -0.340378        -9.2621 
  20   0.0000       0.050362         1.3704 
  21   0.0000       0.069029         1.8784 
  22   0.0000       0.086472         2.3530 
  23   0.0000       0.088538         2.4092 
  24   0.0000       0.104436         2.8418 
  25   0.0000       0.113759         3.0955 
  26   0.0000       0.128989         3.5100 
  27   0.0000       0.138070         3.7571 
  28   0.0000       0.153350         4.1729 
  29   0.0000       0.163804         4.4573 
  30   0.0000       0.201602         5.4859 
*Only the first 10 virtual orbitals were printed.

                    ********************************
                    * MULLIKEN POPULATION ANALYSIS *
                    ********************************

-----------------------
MULLIKEN ATOMIC CHARGES
-----------------------
   0 C :    0.048911
   1 C :   -0.079649
   2 I :   -0.012502
   3 O :   -0.271987
   4 C :    0.092429
   5 C :   -0.047359
   6 C :   -0.025305
   7 H :    0.042345
   8 H :    0.043066
   9 H :    0.056350
  10 H :    0.057837
  11 H :    0.025238
  12 H :    0.031276
  13 H :    0.039350
Sum of atomic charges:   -0.0000000

--------------------------------
MULLIKEN REDUCED ORBITAL CHARGES
--------------------------------
  0 C s       :     0.986855  s :     0.986855
      pz      :     0.937588  p :     2.903465
      px      :     0.995504
      py      :     0.970373
      dz2     :     0.011241  d :     0.060769
      dxz     :     0.009141
      dyz     :     0.008771
      dx2y2   :     0.019733
      dxy     :     0.011882

  1 C s       :     1.206834  s :     1.206834
      pz      :     0.963661  p :     2.703932
      px      :     0.783664
      py      :     0.956607
      dz2     :     0.023749  d :     0.168883
      dxz     :     0.045131
      dyz     :     0.013567
      dx2y2   :     0.040657
      dxy     :     0.045779

  2 I s       :     1.950273  s :     1.950273
      pz      :     1.629613  p :     5.002234
      px      :     1.802324
      py      :     1.570298
      dz2     :     0.010324  d :     0.059995
      dxz     :     0.009945
      dyz     :     0.020431
      dx2y2   :     0.007435
      dxy     :     0.011860

  3 O s       :     1.714637  s :     1.714637
      pz      :     1.671911  p :     4.514617
      px      :     1.236555
      py      :     1.606151
      dz2     :     0.006247  d :     0.042733
      dxz     :     0.007582
      dyz     :     0.007460
      dx2y2   :     0.012178
      dxy     :     0.009266

  4 C s       :     1.005009  s :     1.005009
      pz      :     0.916272  p :     2.759633
      px      :     0.958799
      py      :     0.884563
      dz2     :     0.032879  d :     0.142929
      dxz     :     0.028460
      dyz     :     0.022581
      dx2y2   :     0.037047
      dxy     :     0.021961

  5 C s       :     1.050912  s :     1.050912
      pz      :     0.992903  p :     2.906477
      px      :     0.911491
      py      :     1.002083
      dz2     :     0.009480  d :     0.089969
      dxz     :     0.018136
      dyz     :     0.014453
      dx2y2   :     0.026811
      dxy     :     0.021089

  6 C s       :     1.011209  s :     1.011209
      pz      :     0.979000  p :     2.949531
      px      :     0.985990
      py      :     0.984541
      dz2     :     0.008327  d :     0.064565
      dxz     :     0.009020
      dyz     :     0.012011
      dx2y2   :     0.022390
      dxy     :     0.012817

  7 H s       :     0.906692  s :     0.906692
      pz      :     0.017967  p :     0.050963
      px      :     0.013111
      py      :     0.019885

  8 H s       :     0.905251  s :     0.905251
      pz      :     0.013273  p :     0.051683
      px      :     0.026959
      py      :     0.011451

  9 H s       :     0.900986  s :     0.900986
      pz      :     0.011399  p :     0.042665
      px      :     0.010396
      py      :     0.020870

 10 H s       :     0.900886  s :     0.900886
      pz      :     0.020978  p :     0.041277
      px      :     0.012479
      py      :     0.007820

 11 H s       :     0.926043  s :     0.926043
      pz      :     0.017419  p :     0.048719
      px      :     0.013933
      py      :     0.017367

 12 H s       :     0.918535  s :     0.918535
      pz      :     0.013503  p :     0.050189
      px      :     0.025350
      py      :     0.011336

 13 H s       :     0.909949  s :     0.909949
      pz      :     0.018250  p :     0.050701
      px      :     0.013829
      py      :     0.018622



                     *******************************
                     * LOEWDIN POPULATION ANALYSIS *
                     *******************************

----------------------
LOEWDIN ATOMIC CHARGES
----------------------
   0 C :   -0.083404
   1 C :   -0.254087
   2 I :    0.247746
   3 O :   -0.060350
   4 C :   -0.044278
   5 C :   -0.051046
   6 C :   -0.065181
   7 H :    0.043894
   8 H :    0.040662
   9 H :    0.048264
  10 H :    0.052717
  11 H :    0.046747
  12 H :    0.039417
  13 H :    0.038899

-------------------------------
LOEWDIN REDUCED ORBITAL CHARGES
-------------------------------
  0 C s       :     0.840248  s :     0.840248
      pz      :     0.963646  p :     3.034593
      px      :     1.064961
      py      :     1.005985
      dz2     :     0.031361  d :     0.208562
      dxz     :     0.028709
      dyz     :     0.038906
      dx2y2   :     0.068390
      dxy     :     0.041197

  1 C s       :     0.858570  s :     0.858570
      pz      :     0.990545  p :     2.893811
      px      :     0.885023
      py      :     1.018242
      dz2     :     0.069645  d :     0.501706
      dxz     :     0.122738
      dyz     :     0.049198
      dx2y2   :     0.129576
      dxy     :     0.130549

  2 I s       :     1.761178  s :     1.761178
      pz      :     1.602143  p :     4.897152
      px      :     1.760588
      py      :     1.534421
      dz2     :     0.016876  d :     0.093924
      dxz     :     0.014994
      dyz     :     0.030508
      dx2y2   :     0.012914
      dxy     :     0.018633

  3 O s       :     1.405320  s :     1.405320
      pz      :     1.632009  p :     4.546588
      px      :     1.332185
      py      :     1.582395
      dz2     :     0.016462  d :     0.108441
      dxz     :     0.021708
      dyz     :     0.013977
      dx2y2   :     0.031418
      dxy     :     0.024876

  4 C s       :     0.763027  s :     0.763027
      pz      :     0.966409  p :     2.858866
      px      :     0.967463
      py      :     0.924994
      dz2     :     0.092142  d :     0.422385
      dxz     :     0.082988
      dyz     :     0.074573
      dx2y2   :     0.110626
      dxy     :     0.062056

  5 C s       :     0.818123  s :     0.818123
      pz      :     0.945154  p :     2.937666
      px      :     0.979130
      py      :     1.013381
      dz2     :     0.027590  d :     0.295257
      dxz     :     0.058285
      dyz     :     0.048126
      dx2y2   :     0.083295
      dxy     :     0.077961

  6 C s       :     0.836152  s :     0.836152
      pz      :     0.954548  p :     3.015654
      px      :     1.052825
      py      :     1.008281
      dz2     :     0.024062  d :     0.213375
      dxz     :     0.025031
      dyz     :     0.043724
      dx2y2   :     0.073763
      dxy     :     0.046794

  7 H s       :     0.803999  s :     0.803999
      pz      :     0.052607  p :     0.152107
      px      :     0.043407
      py      :     0.056093

  8 H s       :     0.807474  s :     0.807474
      pz      :     0.041845  p :     0.151864
      px      :     0.070455
      py      :     0.039564

  9 H s       :     0.806328  s :     0.806328
      pz      :     0.040431  p :     0.145408
      px      :     0.040528
      py      :     0.064449

 10 H s       :     0.804371  s :     0.804371
      pz      :     0.064051  p :     0.142913
      px      :     0.045419
      py      :     0.033442

 11 H s       :     0.802782  s :     0.802782
      pz      :     0.053102  p :     0.150472
      px      :     0.044216
      py      :     0.053154

 12 H s       :     0.809399  s :     0.809399
      pz      :     0.043727  p :     0.151184
      px      :     0.068314
      py      :     0.039143

 13 H s       :     0.808029  s :     0.808029
      pz      :     0.052971  p :     0.153072
      px      :     0.046783
      py      :     0.053318



                      *****************************
                      * MAYER POPULATION ANALYSIS *
                      *****************************

  NA   - Mulliken gross atomic population
  ZA   - Total nuclear charge
  QA   - Mulliken gross atomic charge
  VA   - Mayer's total valence
  BVA  - Mayer's bonded valence
  FA   - Mayer's free valence

  ATOM       NA         ZA         QA         VA         BVA        FA
  0 C      3.9511     4.0000     0.0489     3.9017     3.9017    -0.0000
  1 C      4.0796     4.0000    -0.0796     4.0819     4.0819    -0.0000
  2 I      7.0125     7.0000    -0.0125     1.1246     1.1246    -0.0000
  3 O      6.2720     6.0000    -0.2720     1.9475     1.9475     0.0000
  4 C      3.9076     4.0000     0.0924     3.9654     3.9654    -0.0000
  5 C      4.0474     4.0000    -0.0474     4.0434     4.0434    -0.0000
  6 C      4.0253     4.0000    -0.0253     3.9873     3.9873     0.0000
  7 H      0.9577     1.0000     0.0423     1.0508     1.0508    -0.0000
  8 H      0.9569     1.0000     0.0431     1.0441     1.0441     0.0000
  9 H      0.9437     1.0000     0.0563     1.0220     1.0220    -0.0000
 10 H      0.9422     1.0000     0.0578     1.0082     1.0082    -0.0000
 11 H      0.9748     1.0000     0.0252     1.0483     1.0483    -0.0000
 12 H      0.9687     1.0000     0.0313     1.0400     1.0400     0.0000
 13 H      0.9607     1.0000     0.0393     1.0478     1.0478     0.0000

  Mayer bond orders larger than 0.100000
B(  0-C ,  1-C ) :   1.8836 B(  0-C ,  7-H ) :   0.9892 B(  0-C ,  8-H ) :   0.9918 
B(  1-C ,  2-I ) :   1.0963 B(  1-C ,  3-O ) :   1.0018 B(  3-O ,  4-C ) :   0.9070 
B(  4-C ,  5-C ) :   1.0396 B(  4-C ,  9-H ) :   0.9827 B(  4-C , 10-H ) :   0.9846 
B(  5-C ,  6-C ) :   1.9366 B(  5-C , 11-H ) :   0.9984 B(  6-C , 12-H ) :   0.9968 
B(  6-C , 13-H ) :   0.9965 

-------
TIMINGS
-------

Total SCF time: 0 days 0 hours 0 min 22 sec 

Total time                  ....      22.761 sec
Sum of individual times     ....      21.724 sec  ( 95.4%)

SCF preparation             ....       0.263 sec  (  1.2%)
Fock matrix formation       ....      21.162 sec  ( 93.0%)
  Startup                   ....       0.023 sec  (  0.1% of F)
  Split-RI-J                ....       0.820 sec  (  3.9% of F)
  Chain of spheres X        ....      19.512 sec  ( 92.2% of F)
  XC integration            ....       1.596 sec  (  7.5% of F)
    Basis function eval.    ....       0.576 sec  ( 36.1% of XC)
    Density eval.           ....       0.209 sec  ( 13.1% of XC)
    XC-Functional eval.     ....       0.331 sec  ( 20.8% of XC)
    XC-Potential eval.      ....       0.250 sec  ( 15.6% of XC)
Diagonalization             ....       0.000 sec  (  0.0%)
Density matrix formation    ....       0.041 sec  (  0.2%)
Total Energy calculation    ....       0.022 sec  (  0.1%)
Population analysis         ....       0.012 sec  (  0.1%)
Orbital Transformation      ....       0.013 sec  (  0.1%)
Orbital Orthonormalization  ....       0.000 sec  (  0.0%)
DIIS solution               ....       0.115 sec  (  0.5%)
SOSCF solution              ....       0.097 sec  (  0.4%)
Finished LeanSCF after  22.8 sec

Maximum memory used throughout the entire LEANSCF-calculation: 15.1 MB


           ************************************************************
           *        Program running with 8 parallel MPI-processes     *
           *              working on a common directory               *
           ************************************************************

------------------------------------------------------------------------------
                         ORCA PROPERTY INTEGRAL CALCULATIONS
------------------------------------------------------------------------------

GBWName                                   ... reactant.gbw
Number of atoms                           ...     14
Number of basis functions                 ...    126
Max core memory                           ...   4000 MB

Dipole integrals                          ... YES
Quadrupole integrals                      ...  NO
Linear momentum integrals                 ...  NO
Angular momentum integrals                ...  NO
Higher moments length integrals           ...  NO
Higher moments velocity integrals         ...  NO
Kinetic energy integrals                  ...  NO
GIAO right hand sides                     ...  NO
GIAO dipole derivative integrals          ...  NO
SOC integrals                             ...  NO
EPR diamagnetic integrals (GIAO)          ...  NO
EPR gauge integrals                       ...  NO
Field gradient integrals                  ...  NO (   0 nuclei)
Spin-dipole/Fermi contact integrals       ...  NO (   0 nuclei)
Contact density integrals                 ...  NO (   0 nuclei)
Nucleus-orbit integrals                   ...  NO (   0 nuclei)
Geometric perturbations                   ...  NO (  14 nuclei)

Choice of electric origin   ... Center of mass
Position of electric origin ... (  2.8368, -1.4276,  2.1782) 
Choice of magnetic origin   ... GIAO
Position of magnetic origin ... (  0.0000,  0.0000,  0.0000) 

Calculating integrals                     ... Electric Dipole (Length)     done (  0.0 sec)

Property integrals calculated in   0.0 sec

Maximum memory used throughout the entire PROPINT-calculation: 9.8 MB


-------------------------------------------------------------------------------
                          DFT DISPERSION CORRECTION                            
                                                                               
                                DFTD4 V3.4.0                                   
-------------------------------------------------------------------------------
The wB97X-3c composite method is recognized
Using three-body term ABC
Active option DFTDOPT                   ...         5   

-------------------------   ----------------
Dispersion correction           -0.014949896
-------------------------   ----------------


-------------------------   --------------------
FINAL SINGLE POINT ENERGY       -60.098571990094
-------------------------   --------------------



           ************************************************************
           *        Program running with 8 parallel MPI-processes     *
           *              working on a common directory               *
           ************************************************************
------------------------------------------------------------------------------
                         ORCA SCF GRADIENT CALCULATION
------------------------------------------------------------------------------

Nuc. rep. gradient        (SHARK) ... done (  0.0 sec)
HCore & Overlap gradient  (SHARK) ... done (  0.0 sec)
ECP gradient              (SHARK) ... done (  0.2 sec)
Split-RIJ-J gradient      (SHARK) ... done (  0.3 sec)
COSX-gradient                     ... done (  5.8 sec)
XC gradient                       ... done (  0.4 sec)
Dispersion correction             ... done (  0.0 sec)

-------------------
DISPERSION GRADIENT
-------------------

   1   C   :    0.000346284    0.000528255   -0.000290337
   2   C   :    0.000236516    0.000103619    0.000088462
   3   I   :    0.000725852   -0.000753839    0.000900508
   4   O   :   -0.000075468    0.000159917    0.000011822
   5   C   :   -0.000214051   -0.000248159   -0.000255144
   6   C   :   -0.000349129   -0.000105157   -0.000162855
   7   C   :   -0.000461439    0.000189375    0.000010831
   8   H   :    0.000070640    0.000133128   -0.000067750
   9   H   :    0.000101223    0.000095211   -0.000064906
  10   H   :   -0.000083865   -0.000115803   -0.000022295
  11   H   :   -0.000037908   -0.000058287   -0.000140549
  12   H   :   -0.000076324   -0.000044365   -0.000049655
  13   H   :   -0.000075451    0.000036810    0.000006288
  14   H   :   -0.000106881    0.000079296    0.000035580

Difference to translation invariance:
           :   -0.0000000000    0.0000000000   -0.0000000000

Difference to rotation invariance:
           :   -0.0000000000    0.0000000000    0.0000000000

Norm of the Dispersion gradient    ...    0.0017913060
RMS gradient                       ...    0.0002764045
MAX gradient                       ...    0.0009005076

------------------
CARTESIAN GRADIENT
------------------

   1   C   :    0.004227999    0.010710630   -0.006775588
   2   C   :    0.015012354   -0.043482312    0.022854236
   3   I   :   -0.003915891    0.016046962   -0.011415864
   4   O   :   -0.021186220    0.018173239    0.007352467
   5   C   :    0.015992778   -0.005697573   -0.001770801
   6   C   :    0.008559259   -0.015779611   -0.009075120
   7   C   :   -0.013025236    0.012614090    0.005099342
   8   H   :    0.001986923    0.003157729   -0.001800869
   9   H   :    0.004141526    0.001898684   -0.001724289
  10   H   :   -0.003098871   -0.001746476    0.000969015
  11   H   :   -0.001835584   -0.000117850   -0.004686497
  12   H   :   -0.003767289    0.000044973   -0.001070479
  13   H   :   -0.003262908    0.001413238    0.000113583
  14   H   :    0.000171160    0.002764277    0.001930864

Difference to translation invariance:
           :    0.0000000000    0.0000000000    0.0000000000

Difference to rotation invariance:
           :    0.0000248925   -0.0000509820   -0.0000252668

Norm of the Cartesian gradient     ...    0.0722718987
RMS gradient                       ...    0.0111517961
MAX gradient                       ...    0.0434823122

-------
TIMINGS
-------

Total SCF gradient time     ....        6.893 sec

Densities                   ....       0.000 sec  (  0.0%)
One electron gradient       ....       0.037 sec  (  0.5%)
RI-J Coulomb gradient       ....       0.331 sec  (  4.8%)
COSX gradient               ....       5.840 sec  ( 84.7%)
XC gradient                 ....       0.429 sec  (  6.2%)

Maximum memory used throughout the entire SCFGRAD-calculation: 29.8 MB
------------------------------------------------------------------------------
                         ORCA GEOMETRY RELAXATION STEP
------------------------------------------------------------------------------

Reading the OPT-File                    .... done
Getting information on internals        .... done
Copying old internal coords+grads       .... done
Making the new internal coordinates     .... (2022 redundants) done
Validating the new internal coordinates .... (2022 redundants) done
Calculating the B-matrix                .... done
Calculating the G,G- and P matrices     .... done
Transforming gradient to internals      .... done
Projecting the internal gradient        .... done
Number of atoms                         ....  14
Number of internal coordinates          ....  50
Current Energy                          ....   -60.098571990 Eh
Current gradient norm                   ....     0.072271899 Eh/bohr
Maximum allowed component of the step   ....  0.300
Current trust radius                    ....  0.300
Evaluating the initial hessian          ....  (Almloef) done
Projecting the Hessian                  .... done
Forming the augmented Hessian           .... done
Diagonalizing the augmented Hessian     .... done
Last element of RFO vector              ....  0.982102860
Lowest eigenvalues of augmented Hessian:
 -0.006977845  0.012394140  0.018479400  0.024503315  0.025315965
Length of the computed step             ....  0.191777625
The final length of the internal step   ....  0.191777625
Converting the step to Cartesian space:
 Initial RMS(Int)=    0.0271214518
Transforming coordinates:
 Iter   0:  RMS(Cart)=    0.0523575440 RMS(Int)=    0.0273152492
 Iter   5:  RMS(Cart)=    0.0000000146 RMS(Int)=    0.0000000053
done
Storing new coordinates                 .... done

                                .--------------------.
          ----------------------|Geometry convergence|-------------------------
          Item                value                   Tolerance       Converged
          ---------------------------------------------------------------------
          RMS gradient        0.0074329529            0.0001000000      NO
          MAX gradient        0.0239876544            0.0003000000      NO
          RMS step            0.0271214518            0.0020000000      NO
          MAX step            0.1047094696            0.0040000000      NO
          -------------------------------------------------------------------------
          ........................................................
          Max(Bonds)      0.0554      Max(Angles)    1.79
          Max(Dihed)        5.75      Max(Improp)    0.00
          ---------------------------------------------------------------------

The optimization has not yet converged - more geometry cycles are needed


    ---------------------------------------------------------------------------
                         Redundant Internal Coordinates
                            (Angstroem and degrees)

        Definition                    Value    dE/dq     Step     New-Value
    ----------------------------------------------------------------------------
     1. B(C   1,C   0)                1.3377  0.021353 -0.0148    1.3229   
     2. B(I   2,C   1)                2.0604 -0.019467  0.0554    2.1158   
     3. B(O   3,C   1)                1.3815  0.022380 -0.0203    1.3612   
     4. B(C   4,O   3)                1.4298  0.009652 -0.0104    1.4194   
     5. B(C   5,C   4)                1.5053  0.011640 -0.0148    1.4905   
     6. B(C   6,C   5)                1.3404  0.023988 -0.0168    1.3236   
     7. B(H   7,C   0)                1.0849  0.002413 -0.0034    1.0815   
     8. B(H   8,C   0)                1.0842  0.004030 -0.0057    1.0785   
     9. B(H   9,C   4)                1.0959  0.001703 -0.0025    1.0934   
    10. B(H  10,C   4)                1.0975  0.003348 -0.0050    1.0925   
    11. B(H  11,C   5)                1.0880  0.002374 -0.0034    1.0846   
    12. B(H  12,C   6)                1.0854  0.003294 -0.0047    1.0807   
    13. B(H  13,C   6)                1.0861  0.003121 -0.0044    1.0817   
    14. A(H   7,C   0,H   8)          117.41 -0.004138    0.73    118.14   
    15. A(C   1,C   0,H   7)          120.26  0.002702   -0.46    119.80   
    16. A(C   1,C   0,H   8)          122.33  0.001436   -0.27    122.06   
    17. A(C   0,C   1,I   2)          121.01 -0.004627    0.88    121.89   
    18. A(I   2,C   1,O   3)          119.07  0.012936   -1.79    117.28   
    19. A(C   0,C   1,O   3)          119.62 -0.008629    1.28    120.89   
    20. A(C   1,O   3,C   4)          111.56 -0.011054    1.54    113.10   
    21. A(H   9,C   4,H  10)          109.05  0.001519   -0.34    108.72   
    22. A(C   5,C   4,H  10)          108.25 -0.004542    0.92    109.17   
    23. A(O   3,C   4,H  10)          110.30  0.002249   -0.56    109.73   
    24. A(C   5,C   4,H   9)          108.26 -0.003582    0.77    109.03   
    25. A(O   3,C   4,H   9)          110.11  0.000559   -0.23    109.87   
    26. A(O   3,C   4,C   5)          110.81  0.003598   -0.52    110.30   
    27. A(C   4,C   5,H  11)          115.03  0.000790   -0.16    114.87   
    28. A(C   4,C   5,C   6)          126.81  0.004823   -0.67    126.14   
    29. A(C   6,C   5,H  11)          118.16 -0.005612    0.84    119.00   
    30. A(H  12,C   6,H  13)          117.34 -0.001800    0.32    117.66   
    31. A(C   5,C   6,H  13)          121.77  0.000844   -0.15    121.61   
    32. A(C   5,C   6,H  12)          120.89  0.000957   -0.17    120.72   
    33. D(I   2,C   1,C   0,H   8)      3.09  0.001527   -2.18      0.91   
    34. D(O   3,C   1,C   0,H   8)    176.66 -0.000973    1.52    178.18   
    35. D(I   2,C   1,C   0,H   7)   -176.34  0.001642   -2.32   -178.66   
    36. D(O   3,C   1,C   0,H   7)     -2.77 -0.000858    1.38     -1.39   
    37. D(C   4,O   3,C   1,I   2)    -80.81 -0.003875    5.75    -75.05   
    38. D(C   4,O   3,C   1,C   0)    105.50 -0.000322    1.95    107.46   
    39. D(C   5,C   4,O   3,C   1)   -170.78  0.000572   -1.21   -171.99   
    40. D(H  10,C   4,O   3,C   1)    -50.92 -0.001317   -0.77    -51.68   
    41. D(H   9,C   4,O   3,C   1)     69.48  0.002376   -1.70     67.79   
    42. D(H  11,C   5,C   4,H   9)    -59.15  0.000501   -0.06    -59.21   
    43. D(H  11,C   5,C   4,O   3)   -179.99 -0.000095    0.05   -179.94   
    44. D(C   6,C   5,C   4,H  10)   -121.15 -0.001741    0.41   -120.74   
    45. D(C   6,C   5,C   4,H   9)    120.77  0.000922   -0.12    120.65   
    46. D(C   6,C   5,C   4,O   3)     -0.07  0.000326   -0.01     -0.08   
    47. D(H  12,C   6,C   5,C   4)   -179.90 -0.000193   -0.00   -179.91   
    48. D(H  13,C   6,C   5,H  11)    179.83  0.000239   -0.05    179.78   
    49. D(H  13,C   6,C   5,C   4)     -0.08 -0.000198    0.01     -0.08   
    50. D(H  12,C   6,C   5,H  11)      0.01  0.000245   -0.06     -0.05   
    ----------------------------------------------------------------------------

Geometry step timings:
Preparation and reading OPT file:      0.000 s ( 1.696 %)
Internal coordinates            :      0.000 s ( 2.050 %)
B/P matrices and projection     :      0.001 s (21.964 %)
Hessian update/contruction      :      0.001 s (23.028 %)
Making the step                 :      0.000 s (18.139 %)
Converting the step to Cartesian:      0.000 s ( 4.101 %)
Storing new data                :      0.000 s ( 2.563 %)
Checking convergence            :      0.000 s ( 2.879 %)
Final printing                  :      0.001 s (23.462 %)
Total time                      :      0.003 s

Time for energy+gradient        :     33.822 s
Time for complete geometry iter :     34.180 s

         *************************************************************
         *                GEOMETRY OPTIMIZATION CYCLE   2            *
         *************************************************************
---------------------------------
CARTESIAN COORDINATES (ANGSTROEM)
---------------------------------
  C      2.409286    1.006706   -0.028844
  C      1.635908    0.139909    0.604081
  I      2.439103   -1.383078    1.833687
  O      0.279717    0.230185    0.529785
  C     -0.302883   -0.785611   -0.272314
  C     -1.755967   -0.518808   -0.469725
  C     -2.434927    0.506501    0.019891
  H      1.962334    1.785324   -0.631904
  H      3.485023    0.970635    0.039600
  H     -0.181687   -1.757829    0.213166
  H      0.191783   -0.815991   -1.245929
  H     -2.276596   -1.253707   -1.074008
  H     -3.491982    0.613777   -0.177914
  H     -1.959113    1.261986    0.630559

----------------------------
CARTESIAN COORDINATES (A.U.)
----------------------------
  NO LB      ZA    FRAG     MASS         X           Y           Z
   0 C     4.0000*   0    12.011    4.552891    1.902400   -0.054508
   1 C     4.0000*   0    12.011    3.091417    0.264390    1.141548
   2 I     7.0000*   0   126.900    4.609237   -2.613639    3.465165
   3 O     6.0000*   0    15.999    0.528589    0.434986    1.001149
   4 C     4.0000*   0    12.011   -0.572365   -1.484590   -0.514599
   5 C     4.0000*   0    12.011   -3.318296   -0.980406   -0.887652
   6 C     4.0000*   0    12.011   -4.601345    0.957149    0.037588
   7 H     1.0000    0     1.008    3.708274    3.373773   -1.194125
   8 H     1.0000    0     1.008    6.585740    1.834235    0.074833
   9 H     1.0000    0     1.008   -0.343338   -3.321815    0.402825
  10 H     1.0000    0     1.008    0.362417   -1.541999   -2.354465
  11 H     1.0000    0     1.008   -4.302143   -2.369162   -2.029580
  12 H     1.0000    0     1.008   -6.598890    1.159870   -0.336209
  13 H     1.0000    0     1.008   -3.702187    2.384808    1.191585
* core charge reduced due to ECP

--------------------------------
INTERNAL COORDINATES (ANGSTROEM)
--------------------------------
 C      0   0   0     0.000000000000     0.00000000     0.00000000
 C      1   0   0     1.322893581134     0.00000000     0.00000000
 I      2   1   0     2.115783900766   121.85467676     0.00000000
 O      2   1   3     1.361220878468   120.85605161   177.30396366
 C      4   2   1     1.419375163765   113.09934976   107.48854667
 C      5   4   2     1.490506058994   110.29769336   188.00869741
 C      6   5   4     1.323620230219   126.13889164   359.91482089
 H      1   2   3     1.081522772342   119.79498809   181.32553892
 H      1   2   3     1.078515634419   122.06143643     0.89568016
 H      5   4   2     1.093428997871   109.87247058    67.78978238
 H      5   4   2     1.092493807878   109.73468327   308.31554739
 H      6   5   4     1.084568114952   114.86521454   180.05752053
 H      7   6   5     1.080740970968   120.72392820   180.09563120
 H      7   6   5     1.081698955388   121.61498029   359.92297360

---------------------------
INTERNAL COORDINATES (A.U.)
---------------------------
 C      0   0   0     0.000000000000     0.00000000     0.00000000
 C      1   0   0     2.499906572666     0.00000000     0.00000000
 I      2   1   0     3.998252131007   121.85467676     0.00000000
 O      2   1   3     2.572334668081   120.85605161   177.30396366
 C      4   2   1     2.682230340805   113.09934976   107.48854667
 C      5   4   2     2.816648252448   110.29769336   188.00869741
 C      6   5   4     2.501279740432   126.13889164   359.91482089
[...]
      8      -0.000023  -0.000000  -0.000008   0.000001   0.000001   0.000018
      9       0.000162  -0.000010   0.000163  -0.000410   0.000195   0.000672
     10       0.000395   0.000310   0.000038  -0.000104  -0.000205   0.000053
     11       0.000127   0.000168  -0.000154  -0.000122  -0.000079  -0.000002
     12       0.013168   0.000795  -0.000286  -0.002793  -0.000313   0.000012
     13       0.047029  -0.001119  -0.000279   0.002353   0.000489  -0.000145
     14      -0.080785  -0.000610   0.000206   0.000858   0.000177   0.000068
     15      -0.000023  -0.025020   0.000773   0.032660   0.003922  -0.000019
     16       0.000161  -0.026618   0.001393   0.058163   0.005159  -0.000022
     17      -0.000510  -0.018855   0.000894   0.037242   0.003491  -0.000008
     18       0.000029   0.032808   0.000446   0.015747   0.085055  -0.000074
     19       0.000073  -0.042640  -0.000893  -0.035045   0.037832  -0.000044
     20      -0.000083  -0.017279  -0.000401  -0.016191   0.035705  -0.000037
     21      -0.001057   0.000176  -0.299377   0.007471   0.000231   0.189034
     22       0.001532  -0.000303   0.618286  -0.015612  -0.000627  -0.405976
     23      -0.001225   0.000334  -0.466989   0.011838   0.000324   0.305075
     24       0.002170  -0.000702   0.539806  -0.013287   0.000684   0.818312
     25      -0.000208   0.000001  -0.030444   0.000819   0.000019  -0.035179
     26       0.000158  -0.000174   0.110104  -0.002731   0.000178   0.159705
     27       0.123576  -0.001844  -0.000189   0.007436   0.000069  -0.000470
     28      -0.637047   0.004912   0.002718  -0.019498  -0.000584   0.000698
     29       0.381704  -0.003539  -0.001421   0.011718   0.000521  -0.000774
     30      -0.278006  -0.004438   0.000686   0.014208   0.000159  -0.000067
     31       0.070694   0.000481   0.000179  -0.003196   0.000096   0.000210
     32       0.584799   0.007160  -0.000366  -0.021201  -0.000440   0.000217
     33      -0.000139   0.262993  -0.010360  -0.431162  -0.039021   0.000250
     34      -0.000186   0.365506  -0.014548  -0.605046  -0.057201   0.000282
     35       0.001451   0.244216  -0.009760  -0.403554  -0.037825   0.000177
     36       0.001334  -0.638745  -0.008667  -0.327724  -0.673541   0.000499
     37       0.000324   0.057842   0.000848   0.030811   0.070196  -0.000060
     38      -0.000873  -0.082476  -0.001078  -0.041705  -0.081918   0.000069
     39      -0.000296   0.279327   0.004945   0.201215  -0.345929   0.000410
     40      -0.000595   0.404699   0.007434   0.294605  -0.527066   0.000584
     41      -0.000213   0.269542   0.004900   0.195808  -0.347873   0.000375


-----------
IR SPECTRUM
-----------

 Mode   freq       eps      Int      T**2         TX        TY        TZ
       cm**-1   L/(mol*cm) km/mol    a.u.
----------------------------------------------------------------------------
  6:     28.35   0.000042    0.21  0.000464  (-0.015897 -0.006973  0.012747)
  7:     83.69   0.000830    4.19  0.003095  (-0.006771 -0.025087  0.049187)
  8:    152.41   0.000265    1.34  0.000543  (-0.014603  0.006538  0.016932)
  9:    182.79   0.000519    2.62  0.000886  (-0.004580 -0.016296  0.024491)
 10:    206.85   0.000370    1.87  0.000558  (-0.013727 -0.008131  0.017416)
 11:    323.16   0.000144    0.73  0.000139  ( 0.007261  0.002031 -0.009065)
 12:    371.30   0.000203    1.03  0.000171  ( 0.002883 -0.012266 -0.003465)
 13:    529.21   0.003970   20.06  0.002341  (-0.017089  0.040929 -0.019336)
 14:    551.90   0.007067   35.71  0.003996  ( 0.027355 -0.014854  0.055017)
 15:    580.40   0.001435    7.25  0.000772  ( 0.013620  0.011727 -0.021181)
 16:    627.44   0.004382   22.14  0.002179  ( 0.016530 -0.033630  0.027843)
 17:    755.34   0.000971    4.91  0.000401  ( 0.008350 -0.016763  0.007115)
 18:    906.12   0.009156   46.27  0.003153  (-0.010099  0.028522  0.047304)
 19:    955.38   0.001314    6.64  0.000429  ( 0.012727 -0.014157 -0.008163)
 20:    978.06   0.009372   47.36  0.002990  ( 0.006250  0.026684 -0.047320)
 21:    981.96   0.001142    5.77  0.000363  ( 0.012939 -0.009198 -0.010526)
 22:   1033.98   0.001306    6.60  0.000394  ( 0.004912  0.008151 -0.017420)
 23:   1062.22   0.002375   12.00  0.000698  ( 0.000790 -0.010164  0.024366)
 24:   1079.31   0.007788   39.36  0.002252  (-0.037649 -0.027243  0.009601)
 25:   1171.45   0.014054   71.02  0.003744  ( 0.020546 -0.056719  0.010234)
 26:   1222.28   0.096114  485.72  0.024539  ( 0.137855 -0.019222  0.071870)
 27:   1307.16   0.001328    6.71  0.000317  ( 0.017005  0.005171 -0.001034)
 28:   1346.13   0.000355    1.79  0.000082  ( 0.008841  0.001517  0.001328)
 29:   1432.20   0.007229   36.53  0.001575  ( 0.037770 -0.001945  0.012036)
 30:   1458.48   0.000662    3.35  0.000142  (-0.000362  0.010887 -0.004800)
 31:   1478.44   0.003185   16.10  0.000672  (-0.023071  0.010725  0.005005)
 32:   1528.59   0.002654   13.41  0.000542  ( 0.022345 -0.006454 -0.000891)
 33:   1757.48   0.031359  158.47  0.005568  (-0.062636 -0.038424  0.012976)
 34:   1781.14   0.002077   10.50  0.000364  (-0.011264  0.015028  0.003340)
 35:   3087.63   0.003639   18.39  0.000368  (-0.001932 -0.014361 -0.012562)
 36:   3142.73   0.001691    8.55  0.000168  ( 0.003227  0.003430 -0.012072)
 37:   3222.30   0.000754    3.81  0.000073  ( 0.003202 -0.007143 -0.003427)
 38:   3236.04   0.000411    2.08  0.000040  ( 0.006107  0.001515 -0.000167)
 39:   3238.60   0.001266    6.40  0.000122  ( 0.008369  0.005123  0.005069)
 40:   3327.93   0.000179    0.91  0.000017  ( 0.004028 -0.000145  0.000738)
 41:   3357.16   0.000360    1.82  0.000033  ( 0.005583 -0.000724  0.001346)

* The epsilon (eps) is given for a Dirac delta lineshape.
** The dipole moment derivative (T) already includes vibrational overlap.

The first frequency considered to be a vibration is 6
The total number of vibrations considered is 36


--------------------------
THERMOCHEMISTRY AT 298.15K
--------------------------

Temperature         ...   298.15 K
Pressure            ...     1.00 atm
Total Mass          ...   210.01 AMU
Quasi RRHO          ...     True
Cut-Off Frequency   ...     1.00 cm^-1

Throughout the following assumptions are being made:
  (1) The electronic state is orbitally nondegenerate
  (2) There are no thermally accessible electronically excited states
  (3) Hindered rotations indicated by low frequency modes are not
      treated as such but are treated as vibrations and this may
      cause some error
  (4) All equations used are the standard statistical mechanics
      equations for an ideal gas
  (5) All vibrations are strictly harmonic

freq.      28.35  E(vib)   ...       0.55 
freq.      83.69  E(vib)   ...       0.48 
freq.     152.41  E(vib)   ...       0.40 
freq.     182.79  E(vib)   ...       0.37 
freq.     206.85  E(vib)   ...       0.35 
freq.     323.16  E(vib)   ...       0.25 
freq.     371.30  E(vib)   ...       0.21 
freq.     529.21  E(vib)   ...       0.13 
freq.     551.90  E(vib)   ...       0.12 
freq.     580.40  E(vib)   ...       0.11 
freq.     627.44  E(vib)   ...       0.09 
freq.     755.34  E(vib)   ...       0.06 
freq.     906.12  E(vib)   ...       0.03 
freq.     955.38  E(vib)   ...       0.03 
freq.     978.06  E(vib)   ...       0.03 
freq.     981.96  E(vib)   ...       0.02 
freq.    1033.98  E(vib)   ...       0.02 
freq.    1062.22  E(vib)   ...       0.02 
freq.    1079.31  E(vib)   ...       0.02 
freq.    1171.45  E(vib)   ...       0.01 
freq.    1222.28  E(vib)   ...       0.01 
freq.    1307.16  E(vib)   ...       0.01 
freq.    1346.13  E(vib)   ...       0.01 
freq.    1432.20  E(vib)   ...       0.00 
freq.    1458.48  E(vib)   ...       0.00 
freq.    1478.44  E(vib)   ...       0.00 
freq.    1528.59  E(vib)   ...       0.00 
freq.    1757.48  E(vib)   ...       0.00 
freq.    1781.14  E(vib)   ...       0.00 
freq.    3087.63  E(vib)   ...       0.00 
freq.    3142.73  E(vib)   ...       0.00 
freq.    3222.30  E(vib)   ...       0.00 
freq.    3236.04  E(vib)   ...       0.00 
freq.    3238.60  E(vib)   ...       0.00 
freq.    3327.93  E(vib)   ...       0.00 
freq.    3357.16  E(vib)   ...       0.00 

------------
INNER ENERGY
------------

The inner energy is: U= E(el) + E(ZPE) + E(vib) + E(rot) + E(trans)
    E(el)   - is the total energy from the electronic structure calculation
              = E(kin-el) + E(nuc-el) + E(el-el) + E(nuc-nuc)
    E(ZPE)  - the the zero temperature vibrational energy from the frequency calculation
    E(vib)  - the the finite temperature correction to E(ZPE) due to population
              of excited vibrational states
    E(rot)  - is the rotational thermal energy
    E(trans)- is the translational thermal energy

Summary of contributions to the inner energy U:
Electronic energy                ...    -60.10482041 Eh
Zero point energy                ...      0.11045832 Eh      69.31 kcal/mol
Thermal vibrational correction   ...      0.00529999 Eh       3.33 kcal/mol
Thermal rotational correction    ...      0.00141627 Eh       0.89 kcal/mol
Thermal translational correction ...      0.00141627 Eh       0.89 kcal/mol
-----------------------------------------------------------------------
Total thermal energy                    -59.98622957 Eh


Summary of corrections to the electronic energy:
(perhaps to be used in another calculation)
Total thermal correction                  0.00813253 Eh       5.10 kcal/mol
Non-thermal (ZPE) correction              0.11045832 Eh      69.31 kcal/mol
-----------------------------------------------------------------------
Total correction                          0.11859085 Eh      74.42 kcal/mol


--------
ENTHALPY
--------

The enthalpy is H = U + kB*T
                kB is Boltzmann's constant
Total thermal energy              ...    -59.98622957 Eh 
Thermal Enthalpy correction       ...      0.00094421 Eh       0.59 kcal/mol
-----------------------------------------------------------------------
Total Enthalpy                    ...    -59.98528536 Eh


Note: Only C1 symmetry has been detected, increase convergence thresholds 
      if your molecule has a higher symmetry. Symmetry factor of 1.0 is   
      used for the rotational entropy correction. 
 

Note: Rotational entropy computed according to Herzberg 
Infrared and Raman Spectra, Chapter V,1, Van Nostrand Reinhold, 1945 
Point Group:  C1, Symmetry Number:   1  
Rotational constants in cm-1:     0.109713     0.023088     0.020116 

Vibrational entropy computed according to the QRRHO of S. Grimme
Chem.Eur.J. 2012 18 9955 using a reference frequency of 100.0 cm-1


-------
ENTROPY
-------

The entropy contributions are T*S = T*(S(el)+S(vib)+S(rot)+S(trans))
     S(el)   - electronic entropy
     S(vib)  - vibrational entropy
     S(rot)  - rotational entropy
     S(trans)- translational entropy
The entropies will be listed as multiplied by the temperature to get
units of energy

Electronic entropy                ...      0.00000000 Eh      0.00 kcal/mol
Vibrational entropy               ...      0.00945256 Eh      5.93 kcal/mol
Rotational entropy                ...      0.01417721 Eh      8.90 kcal/mol
Translational entropy             ...      0.01992209 Eh     12.50 kcal/mol
-----------------------------------------------------------------------
Final entropy term                ...      0.04355186 Eh     27.33 kcal/mol

In case the symmetry of your molecule has not been determined correctly
or in case you have a reason to use a different symmetry number we print 
out the resulting rotational entropy values for sn=1,12:

 non-linear molecules -----------------------------------
|  sn= 1 | S(rot)=       0.01417721 Eh      8.90 kcal/mol|
|  sn= 2 | S(rot)=       0.01352275 Eh      8.49 kcal/mol|
|  sn= 3 | S(rot)=       0.01313992 Eh      8.25 kcal/mol|
|  sn= 4 | S(rot)=       0.01286830 Eh      8.07 kcal/mol|
|  sn= 5 | S(rot)=       0.01265761 Eh      7.94 kcal/mol|
|  sn= 6 | S(rot)=       0.01248546 Eh      7.83 kcal/mol|
|  sn= 7 | S(rot)=       0.01233992 Eh      7.74 kcal/mol|
|  sn= 8 | S(rot)=       0.01221384 Eh      7.66 kcal/mol|
|  sn= 9 | S(rot)=       0.01210263 Eh      7.59 kcal/mol|
|  sn=10 | S(rot)=       0.01200315 Eh      7.53 kcal/mol|
|  sn=11 | S(rot)=       0.01191316 Eh      7.48 kcal/mol|
|  sn=12 | S(rot)=       0.01183101 Eh      7.42 kcal/mol|
 linear molecules ---------------------------------------
|  Dinfh | S(rot)=       0.00901399 Eh      5.66 kcal/mol|
|  Cinfv | S(rot)=       0.00966845 Eh      6.07 kcal/mol|
 --------------------------------------------------------


-------------------
GIBBS FREE ENERGY
-------------------

The Gibbs free energy is G = H - T*S

Total enthalpy                    ...    -59.98528536 Eh 
Total entropy correction          ...     -0.04355186 Eh    -27.33 kcal/mol
-----------------------------------------------------------------------
Final Gibbs free energy         ...    -60.02883722 Eh

For completeness - the Gibbs free energy minus the electronic energy
G-E(el)                           ...      0.07598319 Eh     47.68 kcal/mol


Maximum memory used throughout the entire PROP-calculation: 53.3 MB

--------------------------------
SUGGESTED CITATIONS FOR THIS RUN
--------------------------------

Below you find a list of papers that are relevant to this ORCA run
We neither can nor want to force you to cite these papers, but we appreciate if you do
You receive ORCA, which is the product of decades of hard work by many enthusiastic individuals, for free
The only thing we kindly ask in return is that you cite our papers,
We deeply appreciate it, if you show your appreciation for ORCA by not just citing the generic ORCA reference.

Please note that relegating all ORCA citations to the supporting information does *not* help us.
SI sections are not indexed - citations you put there will not count into any citation statistics
But we need these citations in order to attract the funding resources that allow us to do what we are doing

Therefore, if you are a happy ORCA user, please consider citing a few of the papers listed below in the main body of your paper

In addition to the list printed below, the program has created the file reactant.bibtex that contains the list in bibtex format
You can import this file easily into all common literature databanks and citation aid programs

It goes without saying that in many instances, there are alternative algorithms to achieve similar
results as the ones you have gotten from ORCA. It is, of course, also the case that in some instances
ORCA just re-implements algorithms worked out by others. We are fully aware of that and we are also
fully appreciative of our colleagues work. Hence this citation list should not be read as indicating
that the listed papers, which are focused on our own work, are the only ones worth citing. It simply
meant to make it easier for users to cite ORCA specific papers. It is not a substitute for doing your
own literature research and citing the relevant literature in a scientifically appropriate manner.

List of essential papers. We consider these as the minimum necessary citations

  1. Mueller, M.; Hansen, A.; Grimme, S.
     wB97X-3c: A composite range-separated hybrid DFT method with a molecule-optimized polarized valence double-zeta basis set
     J. Chem. Phys. 2023 158 , 014103
     doi.org/10.1063/5.0133026
  2. Neese, F.
     Software update: the ORCA program system, version 6.0
     WIRES Comput. Molec. Sci. 2025 15(1), e70019
     doi.org/10.1002/wcms.70019

List of papers to cite with high priority. The work reported in these papers was absolutely
necessary for this run to complete.
Our perspective: the developers of density functionals and basis sets usually get cited in chemistry papers
Good! But without the algorithms to do something with them, the functionals or basis sets would not do anything.
Hence, in our opinion, the algorithm design and method developments papers are equally worthy of getting cited

  1. Neese, F.
     An improvement of the resolution of the identity approximation for the formation of the Coulomb matrix
     J. Comp. Chem. 2003 24(14), 1740-1747
     doi.org/10.1002/jcc.10318
  2. Neese, F.; Wennmohs, F.; Hansen, A.; Becker, U.
     Efficient, approximate and parallel Hartree-Fock and hybrid DFT calculations. A 'chain-of-spheres' algorithm for the Hartree-Fock exchange
     Chem. Phys. 2009 356(1-3), 98-109
     doi.org/10.1016/j.chemphys.2008.10.036
  3. Bykov, D.; Petrenko, T.; Izsak, R.; Kossmann, S.; Becker, U.; Valeev, E.; Neese, F.
     Efficient implementation of the analytic second derivatives of Hartree-Fock and hybrid DFT energies: a detailed analysis of different approximations
     Molec. Phys. 2015 113 , 1961-1977
     doi.org/10.1080/00268976.2015.1025114
  4. Caldeweyher, E.; Bannwarth, C.; Grimme, S.
     Extension of the D3 dispersion coefficient model
     J. Chem. Phys. 2017 147 , 034112
     doi.org/10.1063/1.4993215
  5. Caldeweyher, E.; Ehlert, S.; Hansen, A.; Neugebauer, H.; Spicher, S.; Bannwarth, C.; Grimme, S.
     A generally applicable atomic-charge dependent London dispersion correction
     J. Chem. Phys. 2019 150 , 154122
     doi.org/10.1063/1.5090222
  6. Helmich-Paris, B.; de Souza, B.; Neese, F.; Izsák, R.
     An improved chain of spheres for exchange algorithm
     J. Chem. Phys. 2021 155(10), 104109
     doi.org/10.1063/5.0058766
  7. Neese, F.
     The SHARK Integral Generation and Digestion System
     J. Comp. Chem. 2022 44(3), 381
     doi.org/10.1002/jcc.26942

List of suggested additional citations. These are papers that are important in the 'surrounding' of 
of this run, or papers that preceded the highly important papers. If you like your results we are grateful for a citation.

  1. Izsak, R.; Neese, F.
     An overlap fitted chain of spheres exchange method
     J. Chem. Phys. 2011 135 , 144105
     doi.org/10.1063/1.3646921
  2. Izsak, R.; Hansen, A.; Neese, F.
     The resolution of identity and chain of spheres approximations for the LPNO-CCSD singles Fock term
     Molec. Phys. 2012 110 , 2413-2417
     doi.org/10.1080/00268976.2012.687466
  3. Neese, F.
     The ORCA program system
     WIRES Comput. Molec. Sci. 2012 2(1), 73-78
     doi.org/10.1002/wcms.81
  4. Izsak, R.; Neese, F.; Klopper, W.
     Robust fitting techniques in the chain of spheres approximation to the Fock exchange: The role of the complementary space
     J. Chem. Phys. 2013 139 , 
     doi.org/10.1063/1.4819264
  5. Neese, F.
     Software update: the ORCA program system, version 4.0
     WIRES Comput. Molec. Sci. 2018 8(1), 1-6
     doi.org/10.1002/wcms.1327
  6. Neese, F.; Wennmohs, F.; Becker, U.; Riplinger, C.
     The ORCA quantum chemistry program package
     J. Chem. Phys. 2020 152(22), 224108
     doi.org/10.1063/5.0004608
  7. Neese, F.
     Software update: The ORCA program system—Version 5.0
     WIRES Comput. Molec. Sci. 2022 12(1), e1606
     doi.org/10.1002/wcms.1606

List of optional additional citations

  1. Neese, F.
     Approximate second-order SCF convergence for spin unrestricted wavefunctions
     Chem. Phys. Lett. 2000 325(1-3), 93-98
     doi.org/10.1016/s0009-2614(00)00662-x

Timings for individual modules:

Sum of individual times          ...      345.625 sec (=   5.760 min)
Startup calculation              ...       11.856 sec (=   0.198 min)   3.4 %
SCF iterations                   ...      161.771 sec (=   2.696 min)  46.8 %
Property integrals               ...       21.558 sec (=   0.359 min)   6.2 %
SCF Response                     ...       15.789 sec (=   0.263 min)   4.6 %
Property calculations            ...       76.941 sec (=   1.282 min)  22.3 %
SCF Gradient evaluation          ...       57.675 sec (=   0.961 min)  16.7 %
Geometry relaxation              ...        0.036 sec (=   0.001 min)   0.0 %
                             ****ORCA TERMINATED NORMALLY****
TOTAL RUN TIME: 0 days 0 hours 5 minutes 48 seconds 772 msec
