14
Coordinates from ORCA-job ts_scan Relaxed Surface Scan Step 1 E -60.100051890914
  C       1.434909      0.923267     -0.189520
  C       1.411024     -0.118893      0.623610
  I       2.832131     -0.345858      2.170164
  O       0.535971     -1.129909      0.647916
  C      -0.351666     -1.256677     -0.447802
  C      -1.424337     -0.222425     -0.488256
  C      -1.515583      0.801088      0.339316
  H       0.701649      1.063844     -0.965075
  H       2.225223      1.650229     -0.096227
  H      -0.786036     -2.249737     -0.346824
  H       0.226421     -1.238175     -1.376586
  H      -2.139440     -0.342133     -1.295192
  H      -2.321567      1.515500      0.237256
  H      -0.828699      0.949877      1.157351
>
14
Coordinates from ORCA-job ts_scan Relaxed Surface Scan Step 2 E -60.097377032005
  C       1.387010      0.932465     -0.174768
  C       1.396098     -0.122808      0.621392
  I       2.818594     -0.326854      2.169266
  O       0.547226     -1.156360      0.634544
  C      -0.353205     -1.276087     -0.451481
  C      -1.407718     -0.223924     -0.488159
  C      -1.465738      0.808262      0.331591
  H       0.664842      1.060330     -0.960983
  H       2.158378      1.678153     -0.067872
  H      -0.799312     -2.262958     -0.342859
  H       0.217066     -1.267934     -1.385534
  H      -2.126774     -0.327564     -1.293650
  H      -2.255490      1.540700      0.226733
  H      -0.780978      0.944577      1.151911
>
14
Coordinates from ORCA-job ts_scan Relaxed Surface Scan Step 3 E -60.093731004755
  C       1.338600      0.940671     -0.165467
  C       1.381994     -0.125481      0.614835
  I       2.795599     -0.296868      2.174144
  O       0.563041     -1.183261      0.615763
  C      -0.355923     -1.296353     -0.455402
  C      -1.388955     -0.223429     -0.486873
  C      -1.414133      0.812046      0.330436
  H       0.635828      1.052278     -0.969491
  H       2.087195      1.707098     -0.040787
  H      -0.815207     -2.275497     -0.333737
  H       0.201040     -1.303018     -1.397676
  H      -2.104729     -0.301426     -1.297992
  H      -2.182756      1.566450      0.220194
  H      -0.741593      0.926789      1.162185
>
14
Coordinates from ORCA-job ts_scan Relaxed Surface Scan Step 4 E -60.088955184011
  C       1.289748      0.949340     -0.160302
  C       1.369291     -0.126731      0.603549
  I       2.763765     -0.258885      2.183285
  O       0.583814     -1.209860      0.590702
  C      -0.360474     -1.317782     -0.459064
  C      -1.369270     -0.222147     -0.484402
  C      -1.360976      0.812440      0.334590
  H       0.615210      1.042023     -0.988576
  H       2.010855      1.738505     -0.013521
  H      -0.833007     -2.287837     -0.317677
  H       0.176708     -1.343512     -1.412524
  H      -2.073813     -0.266128     -1.307641
  H      -2.101852      1.593588      0.216630
  H      -0.710001      0.896985      1.185081
>
14
Coordinates from ORCA-job ts_scan Relaxed Surface Scan Step 5 E -60.082974066402
  C       1.240489      0.958983     -0.161001
  C       1.358724     -0.126109      0.585558
  I       2.717909     -0.210684      2.198814
  O       0.612197     -1.236265      0.555378
  C      -0.367623     -1.341012     -0.462614
  C      -1.348549     -0.220072     -0.480364
  C      -1.305204      0.808485      0.345748
  H       0.606052      1.029010     -1.021050
  H       1.925877      1.774444      0.013933
  H      -0.852483     -2.299985     -0.291072
  H       0.139722     -1.392008     -1.431182
  H      -2.030474     -0.218916     -1.323380
  H      -2.008257      1.622935      0.218306
  H      -0.688381      0.851191      1.223057
>
14
Coordinates from ORCA-job ts_scan Relaxed Surface Scan Step 6 E -60.075821619978
  C       1.190909      0.972376     -0.168016
  C       1.351943     -0.122471      0.557810
  I       2.651590     -0.152346      2.222037
  O       0.653478     -1.261916      0.501419
  C      -0.378652     -1.367149     -0.466516
  C      -1.325965     -0.217181     -0.475752
  C      -1.245501      0.798811      0.364693
  H       0.612266      1.016038     -1.067614
  H       1.827117      1.818839      0.043931
  H      -0.874078     -2.310211     -0.244529
  H       0.081804     -1.457032     -1.454991
  H      -1.969324     -0.157161     -1.346268
  H      -1.896429      1.654356      0.227896
  H      -0.679157      0.785048      1.276032
>
14
Coordinates from ORCA-job ts_scan Relaxed Surface Scan Step 7 E -60.067778076612
  C       1.141391      0.998387     -0.173330
  C       1.352165     -0.113660      0.516736
  I       2.570570     -0.100431      2.244954
  O       0.716531     -1.283027      0.413079
  C      -0.396276     -1.398662     -0.469683
  C      -1.301241     -0.215359     -0.477350
  C      -1.183090      0.782688      0.383681
  H       0.632082      1.024513     -1.115242
  H       1.711727      1.876348      0.092402
  H      -0.895702     -2.312597     -0.154331
  H      -0.012503     -1.560184     -1.480259
  H      -1.886633     -0.085541     -1.380199
  H      -1.765643      1.684872      0.238478
  H      -0.683378      0.702651      1.331195
>
14
Coordinates from ORCA-job ts_scan Relaxed Surface Scan Step 8 E -60.072781262055
  C       1.099627      1.191830     -0.053202
  C       1.413299     -0.082266      0.170996
  I       2.138950     -0.662055      2.103314
  O       1.013118     -1.071822     -0.599439
  C      -0.414018     -1.460232     -0.345151
  C      -1.232325     -0.266156     -0.579255
  C      -1.135583      0.758893      0.272991
  H       0.789646      1.490390     -1.041154
  H       1.386578      1.963989      0.644611
  H      -0.452653     -1.827831      0.679161
  H      -0.585177     -2.274089     -1.039577
  H      -1.615466     -0.103990     -1.579161
  H      -1.566189      1.723692      0.033421
  H      -0.839808      0.619645      1.302576
>
14
Coordinates from ORCA-job ts_scan Relaxed Surface Scan Step 9 E -60.066886902177
  C       1.050363      1.187581     -0.060943
  C       1.411056     -0.082828      0.160876
  I       2.111938     -0.631852      2.115393
  O       1.025190     -1.074002     -0.597919
  C      -0.433104     -1.467821     -0.347478
  C      -1.228305     -0.269255     -0.570913
  C      -1.080176      0.759597      0.282035
  H       0.783655      1.482190     -1.063186
  H       1.324487      1.967004      0.634421
  H      -0.453072     -1.843404      0.673420
  H      -0.593213     -2.272924     -1.053783
  H      -1.598393     -0.087522     -1.572292
  H      -1.494561      1.733305      0.050069
  H      -0.825862      0.599930      1.320430
>
14
Coordinates from ORCA-job ts_scan Relaxed Surface Scan Step 10 E -60.096927661271
  C       1.033674      1.300294     -0.076334
  C       1.727092      0.047060      0.145198
  I       2.260664     -0.269222      2.286695
  O       1.947320     -0.816588     -0.627619
  C      -1.110281     -1.675767     -0.365798
  C      -1.234703     -0.382912     -0.643629
  C      -0.928808      0.664960      0.317386
  H       1.020921      1.596153     -1.119326
  H       1.215663      2.084165      0.643782
  H      -0.790526     -2.013776      0.612093
  H      -1.323882     -2.433258     -1.106875
  H      -1.540053     -0.073419     -1.636107
  H      -1.435887      1.612907      0.187553
  H      -0.841195      0.359403      1.353111
>
14
Coordinates from ORCA-job ts_scan Relaxed Surface Scan Step 11 E -60.108500226161
  C       0.985221      1.289243     -0.065215
  C       1.758415      0.068326      0.141265
  I       2.279560     -0.270232      2.278423
  O       2.051146     -0.750718     -0.652840
  C      -1.163192     -1.682642     -0.354057
  C      -1.203269     -0.391025     -0.652017
  C      -0.877168      0.663523      0.308924
  H       0.988271      1.596381     -1.105831
  H       1.169639      2.077854      0.650701
  H      -0.897149     -2.024322      0.638783
  H      -1.393251     -2.437707     -1.092840
  H      -1.459483     -0.080474     -1.658383
  H      -1.418814      1.594956      0.188826
  H      -0.819926      0.346837      1.344391
>
14
Coordinates from ORCA-job ts_scan Relaxed Surface Scan Step 12 E -60.120697422461
  C       0.936337      1.280871     -0.051598
  C       1.782960      0.092326      0.118211
  I       2.267849     -0.318872      2.245995
  O       2.155624     -0.656261     -0.709040
  C      -1.212389     -1.687544     -0.324673
  C      -1.161662     -0.405818     -0.655111
  C      -0.826821      0.664752      0.297214
  H       0.952735      1.619599     -1.083119
  H       1.128423      2.061906      0.672383
  H      -1.017020     -2.016899      0.688662
  H      -1.448446     -2.448011     -1.056147
  H      -1.350612     -0.109606     -1.680917
  H      -1.404569      1.575443      0.173418
  H      -0.802409      0.348114      1.334854
