
 *******************************************************************************
 *                                                                             *
 *  --------------------------------                                           *
 *   Amsterdam Modeling Suite (AMS)              2026.103                      *
 *  --------------------------------                                           *
 *                                               r260501 2026-05-01 873454b5   *
 *                                                                             *
 *                                                                             *
 *                              =================                              *
 *                              |               |                              *
 *                              |     A M S     |                              *
 *                              |               |                              *
 *                              =================                              *
 *                                                                             *
 *                                                                             *
 *   Online information and documentation:  https://www.scm.com/support/       *
 *   E-mail:  support@scm.com   info@scm.com                                   *
 *                                                                             *
 *   Scientific publications using AMS results must be properly referenced     *
 *   See the User Manuals (or the web site) for recommended citations          *
 *   The terms and conditions of the End User License Agreement apply to       *
 *   the use of AMS, https://www.scm.com/license-terms/                        *
 *                                                                             *
 **********************  x86_64_linux_intel / intelmpi  ************************
 
 Licensed to: Jong-June Jeon / University of Seoul 2026-05-13 16:10:32
 SCM User ID: u30731
  
 AMS 2026.103  RunTime: May30-2026 08:10:13  ShM Nodes: 1  Procs: 1

 AMS jobname: c1_fragA_ts
 AMS jobid  : 653661910

 Start   directory: /gpfs/home1/yeseo1ee/projects/eda-asm-prediction/adf_outputs/batch_000/dipolar_000804/
 Results directory: /gpfs/home1/yeseo1ee/projects/eda-asm-prediction/adf_outputs/batch_000/dipolar_000804/c1_fragA_ts.results/
 Scratch directory: /tmp/amstmp_c1_fragA_ts_kid0.653661910/

 RNG seed: 1101287573 1632354513 -735543873 -961568874 -473248829 804005251 710925155 1838243847



                      ************************************************************************
                      *  ADF 2026.103  RunTime: May30-2026 08:10:13  ShM Nodes: 1  Procs: 1  *
                      ************************************************************************
  

       ****************************
       * SINGLE POINT CALCULATION *
       ****************************

--------
Geometry
--------
Formula: C5H8N2O3
Atoms
  Index Symbol   x (angstrom)   y (angstrom)   z (angstrom)
      1      O    -2.11521000    -1.36136000     1.36467000
      2      N    -2.22541000    -0.08722000     1.52616000
      3      C    -2.20082000     0.72717000     0.45362000
      4      C    -1.80403000     2.13331000     0.81606000
      5      C    -1.66947000     3.18377000    -0.24064000
      6      O    -1.52550000     2.36573000     1.98684000
      7      C    -2.97453000     0.40215000    -0.79930000
      8      O    -3.05497000     1.21351000    -1.72951000
      9      N    -3.57200000    -0.80034000    -0.83729000
     10      C    -4.30379000    -1.23309000    -2.01045000
     11      H    -1.79192000     0.31772000     2.36774000
     12      H    -1.05709000     2.81713000    -1.07668000
     13      H    -1.21707000     4.07634000     0.21048000
     14      H    -2.65706000     3.42523000    -0.65961000
     15      H    -3.34031000    -1.46106000    -0.09674000
     16      H    -4.74767000    -2.21529000    -1.80729000
     17      H    -5.10839000    -0.52419000    -2.25758000
     18      H    -3.64536000    -1.31628000    -2.89128000

Total System Charge              0.00000


----------------
ADF Engine Input
----------------
 
   Basis
     Type TZ2P
     Core None
   End
   XC
     GGA BLYP
     Dispersion GRIMME3 BJDAMP
   End
   Symmetry NOSYM
   NumericalQuality Normal
   Unrestricted No
   SCF
     Iterations 200
     Converge 1.0e-6
   End
   Save TAPE21
 

 Title: *** (NO TITLE) ***

 *** adf ***



 ===========================
 A T T A C H E D   F I L E S
 ===========================
  



 ===============================
 M O D E L   P A R A M E T E R S
 ===============================
  
 DENSITY FUNCTIONAL POTENTIAL (scf)
    LDA:                               Exchange only                           == Not Default ==
    Gradient Corrections:              Becke88 LYP                             == Not Default ==

 SPIN  (restricted / unrestr.)
    Molecule:                          Restricted                               
    Fragments:                         Restricted                               

 OTHER ASPECTS
    Relativistic Corrections:          scalar (ZORA,MAPA)                       

    Nuclear Charge Density Model:      Point Charge Nuclei                      
    Core Treatment:                    Frozen Orbital(s)                        

    Hyperfine or Zeeman Interaction:   ---                                      

 Settings for Grimme D3 dispersion correction

      damping                        BJ
      s6                          1.000
      s8                          2.700
      a1                          0.430
      a2                          4.236

 Other (technical) parameters

      alpha                      14.000
      version                         4
 


 Fragment File(s)
 ----------------
 O:
         file : /gpfs/home1/yeseo1ee/projects/eda-asm-prediction/adf_outputs/batch_000/dipolar_000804/c1_fragA_ts.results/t21.6E90ABAE.O
         jobid: 0
         title: Oxygen (TZ2P)
 N:
         file : /gpfs/home1/yeseo1ee/projects/eda-asm-prediction/adf_outputs/batch_000/dipolar_000804/c1_fragA_ts.results/t21.44EAA48D.N
         jobid: 0
         title: Nitrogen (TZ2P)
 C:
         file : /gpfs/home1/yeseo1ee/projects/eda-asm-prediction/adf_outputs/batch_000/dipolar_000804/c1_fragA_ts.results/t21.50BA88D5.C
         jobid: 0
         title: Carbon (TZ2P)
 H:
         file : /gpfs/home1/yeseo1ee/projects/eda-asm-prediction/adf_outputs/batch_000/dipolar_000804/c1_fragA_ts.results/t21.6F35CCAB.H
         jobid: 0
         title: Hydrogen (TZ2P)



 ===============
 G E O M E T R Y  ***  3D  Molecule  ***
 ===============
  

 ATOMS
 =====                            X Y Z                    CHARGE
                                (Angstrom)             Nucl     +Core       At.Mass
                       --------------------------    ----------------       -------
    1  O              -2.1152   -1.3614    1.3647      8.00      8.00       15.9949
    2  N              -2.2254   -0.0872    1.5262      7.00      7.00       14.0031
    3  C              -2.2008    0.7272    0.4536      6.00      6.00       12.0000
    4  C              -1.8040    2.1333    0.8161      6.00      6.00       12.0000
    5  C              -1.6695    3.1838   -0.2406      6.00      6.00       12.0000
    6  O              -1.5255    2.3657    1.9868      8.00      8.00       15.9949
    7  C              -2.9745    0.4022   -0.7993      6.00      6.00       12.0000
    8  O              -3.0550    1.2135   -1.7295      8.00      8.00       15.9949
    9  N              -3.5720   -0.8003   -0.8373      7.00      7.00       14.0031
   10  C              -4.3038   -1.2331   -2.0105      6.00      6.00       12.0000
   11  H              -1.7919    0.3177    2.3677      1.00      1.00        1.0078
   12  H              -1.0571    2.8171   -1.0767      1.00      1.00        1.0078
   13  H              -1.2171    4.0763    0.2105      1.00      1.00        1.0078
   14  H              -2.6571    3.4252   -0.6596      1.00      1.00        1.0078
   15  H              -3.3403   -1.4611   -0.0967      1.00      1.00        1.0078
   16  H              -4.7477   -2.2153   -1.8073      1.00      1.00        1.0078
   17  H              -5.1084   -0.5242   -2.2576      1.00      1.00        1.0078
   18  H              -3.6454   -1.3163   -2.8913      1.00      1.00        1.0078


 FRAGMENTS
 =========                                     Atoms in this Fragment     Cart. coord.s (Angstrom)
                                               -------------------------------------------------------
    1  O                                                 1  O           -2.1152   -1.3614    1.3647
    2  O                                                 6  O           -1.5255    2.3657    1.9868
    3  O                                                 8  O           -3.0550    1.2135   -1.7295
    4  N                                                 2  N           -2.2254   -0.0872    1.5262
    5  N                                                 9  N           -3.5720   -0.8003   -0.8373
    6  C                                                 3  C           -2.2008    0.7272    0.4536
    7  C                                                 4  C           -1.8040    2.1333    0.8161
    8  C                                                 5  C           -1.6695    3.1838   -0.2406
    9  C                                                 7  C           -2.9745    0.4022   -0.7993
   10  C                                                10  C           -4.3038   -1.2331   -2.0105
   11  H                                                11  H           -1.7919    0.3177    2.3677
   12  H                                                12  H           -1.0571    2.8171   -1.0767
   13  H                                                13  H           -1.2171    4.0763    0.2105
   14  H                                                14  H           -2.6571    3.4252   -0.6596
   15  H                                                15  H           -3.3403   -1.4611   -0.0967
   16  H                                                16  H           -4.7477   -2.2153   -1.8073
   17  H                                                17  H           -5.1084   -0.5242   -2.2576
   18  H                                                18  H           -3.6454   -1.3163   -2.8913


 Interatomic Distance Matrix (Angstrom)
 --------------------------------------

   1)     0.000
   2)     1.289   0.000
   3)     2.280   1.347   0.000
   4)     3.551   2.369   1.505   0.000
   5)     4.841   3.759   2.608   1.496   0.000
   6)     3.824   2.592   2.343   1.226   2.377   0.000
   7)     2.921   2.492   1.508   2.641   3.123   3.704   0.000
   8)     4.134   3.603   2.394   2.982   2.832   4.181   1.237   0.000
   9)     2.699   2.812   2.425   3.803   4.455   4.710   1.343   2.263   0.000
  10)     4.025   4.259   3.786   5.057   5.439   6.054   2.431   2.761   1.449   0.000
  11)     1.982   1.030   2.000   2.388   3.877   2.100   3.382   4.380   3.833   5.280
          0.000
  12)     4.954   4.071   2.832   2.147   1.099   3.132   3.096   2.644   4.412   5.274
          4.319   0.000
  13)     5.631   4.481   3.499   2.118   1.098   2.485   4.196   3.916   5.516   6.531
          4.372   1.808   0.000
  14)     5.225   4.159   2.954   2.139   1.100   3.067   3.043   2.489   4.327   5.122
          4.424   1.762   1.804   0.000
  15)     1.910   2.401   2.528   4.014   4.938   4.720   2.025   3.147   1.019   2.155
          3.411   4.947   5.938   4.966   0.000
  16)     4.210   4.691   4.501   5.870   6.409   6.765   3.318   3.825   2.080   1.097
          5.708   6.283   7.491   6.124   2.340   0.000
  17)     4.773   4.777   4.168   5.237   5.445   6.261   2.746   2.741   2.110   1.100
          5.753   5.383   6.511   4.915   2.945   1.787   0.000
  18)     4.523   4.800   4.177   5.388   5.584   6.469   2.789   2.846   2.119   1.103
          5.811   5.204   6.678   5.333   2.815   1.788   1.780   0.000

 Min. Distance =    1.0191
 Max. Distance =    7.4914



 =====================================
 S Y M M E T R Y ,   E L E C T R O N S
 =====================================
  
 Symmetry: NOSYM

 Irreducible Representations, including subspecies
 -------------------------------------------------
 A


 Configuration of Valence Electrons
 ==================================
 ( determined in the SCF procedure )

 Total:   76

 Net Charge: 0 (Nuclei minus Electrons)

 Aufbau principle for MO occupations will be applied through SCF cycle no.     100
 Thereafter, the program will assign electrons to MOs that are spatially
 similar to the occupied MOs in a "reference" cycle ("KeepOrbitals").
 The reference cycle is always the PREVIOUS cycle: it will evolve with
 the SCF procedure.
 ***************************************************************************************************



                                      ****************************************
                                      *  B U I L D : (Fragments, Functions)  *
                                      ****************************************
  



 =======
 S F O s  ***  (Symmetrized Fragment Orbitals)  ***
 =======
  
 SFOs are linear combinations of (valence) Fragment Orbitals (FOs), such that the SFOs transform as the
 irreducible representations of the (molecular) symmetry group. Each SFO is therefore characterized by
 an irrep of the molecule and by a few (or only one) generating FOs.
 The SFOs constitute a symmetry-adapted basis for the Fock matrix. The MO eigenvector coefficients in
 this basis provide a direct interpretation of the MOs in terms of Frontier Orbital Theory.

 The SFOs are combined with auxiliary Core Functions (CFs) to ensure orthogonalization on the (frozen)
 Core Orbitals (COs). The Core-orthogonalized SFOs (CSFOs) constitute the true Fock basis.

 The FOs, and hence also the (C)SFOs are combinations of the elementary basis functions (BAS). The basis
 functions that participate in the description of the SFOs depend on the irrep. The indices of the
 involved functions are printed below for each irrep.
 (The complete list of primitive basis functions is printed in another section)

 Total nr. of (C)SFOs (summation over all irreps) :   348

 NOTE: a (C)SFO that is defined as a combination of more than one FO is usually NOT normalized.



                                       === A ===
 Nr. of SFOs :  348
 Cartesian basis functions that participate in this irrep (total number =   396) :
      1     2     3     4     5     6     9    12     7    10
     13     8    11    14    15    16    17    18    19    20
     21    22    23    24    25    26    27    28    29    30
     31    32    33    34    35    36    39    42    37    40
     43    38    41    44    45    46    47    48    49    50
     51    52    53    54    55    56    57    58    59    60
     61    62    63    64    65    66    69    72    67    70
     73    68    71    74    75    76    77    78    79    80
     81    82    83    84    85    86    87    88    89    90
     91    92    93    94    95    96    99   102    97   100
    103    98   101   104   105   106   107   108   109   110
    111   112   113   114   115   116   117   118   119   120
    121   122   123   124   125   126   129   132   127   130
    133   128   131   134   135   136   137   138   139   140
    141   142   143   144   145   146   147   148   149   150
    151   152   153   154   155   156   159   162   157   160
    163   158   161   164   165   166   167   168   169   170
    171   172   173   174   175   176   177   178   179   180
    181   182   183   184   185   186   189   192   187   190
    193   188   191   194   195   196   197   198   199   200
    201   202   203   204   205   206   207   208   209   210
    211   212   213   214   215   216   219   222   217   220
    223   218   221   224   225   226   227   228   229   230
    231   232   233   234   235   236   237   238   239   240
    241   242   243   244   245   246   249   252   247   250
    253   248   251   254   255   256   257   258   259   260
    261   262   263   264   265   266   267   268   269   270
    271   272   273   274   275   276   279   282   277   280
    283   278   281   284   285   286   287   288   289   290
    291   292   293   294   295   296   297   298   299   300
    301   302   303   304   305   306   307   308   309   310
    311   312   313   314   315   316   317   318   319   320
    321   322   323   324   325   326   327   328   329   330
    331   332   333   334   335   336   337   338   339   340
    341   342   343   344   345   346   347   348   349   350
    351   352   353   354   355   356   357   358   359   360
    361   362   363   364   365   366   367   368   369   370
    371   372   373   374   375   376   377   378   379   380
    381   382   383   384   385   386   387   388   389   390
    391   392   393   394   395   396

    SFO  (index         Fragment          Generating    Expansion in Fragment Orbitals
  indx  incl.CFs)   Occup   Orb.Energy   FragmentType  Coeff.   Orbital     on Fragment
 --------------------------------------------------------------------------------------
     1       1      2.000     -18.941 au  O             1.00      1 S               1
                        (    -515.403 eV)
     2       2      2.000      -0.876 au  O             1.00      2 S               1
                        (     -23.838 eV)
     3       3       --         0.791 au  O             1.00      3 S               1
                        (      21.524 eV)
     4       4       --        13.422 au  O             1.00      4 S               1
                        (     365.226 eV)
     5       5       --       121.561 au  O             1.00      5 S               1
                        (    3307.838 eV)
     6       6      1.333      -0.331 au  O             1.00      1 P:x             1
                        (      -9.020 eV)
     7       7       --         0.347 au  O             1.00      2 P:x             1
                        (       9.437 eV)
     8       8       --         3.820 au  O             1.00      3 P:x             1
                        (     103.939 eV)
     9       9      1.333      -0.331 au  O             1.00      1 P:y             1
                        (      -9.020 eV)
    10      10       --         0.347 au  O             1.00      2 P:y             1
                        (       9.437 eV)
    11      11       --         3.820 au  O             1.00      3 P:y             1
                        (     103.939 eV)
    12      12      1.333      -0.331 au  O             1.00      1 P:z             1
                        (      -9.020 eV)
    13      13       --         0.347 au  O             1.00      2 P:z             1
                        (       9.437 eV)
    14      14       --         3.820 au  O             1.00      3 P:z             1
                        (     103.939 eV)
    15      15       --         1.071 au  O             1.00      1 D:z2            1
                        (      29.134 eV)
    16      16       --         1.071 au  O             1.00      1 D:x2-y2         1
                        (      29.134 eV)
    17      17       --         1.071 au  O             1.00      1 D:xy            1
                        (      29.134 eV)
    18      18       --         1.071 au  O             1.00      1 D:xz            1
                        (      29.134 eV)
    19      19       --         1.071 au  O             1.00      1 D:yz            1
                        (      29.134 eV)
    20      20       --         3.359 au  O             1.00      1 F:z3            1
                        (      91.410 eV)
    21      21       --         3.359 au  O             1.00      1 F:z             1
                        (      91.410 eV)
    22      22       --         3.359 au  O             1.00      1 F:xyz           1
                        (      91.410 eV)
    23      23       --         3.359 au  O             1.00      1 F:z2x           1
                        (      91.410 eV)
    24      24       --         3.359 au  O             1.00      1 F:z2y           1
                        (      91.410 eV)
    25      25       --         3.359 au  O             1.00      1 F:x             1
                        (      91.410 eV)
    26      26       --         3.359 au  O             1.00      1 F:y             1
                        (      91.410 eV)
    27      27      2.000     -18.941 au  O             1.00      1 S               2
                        (    -515.403 eV)
    28      28      2.000      -0.876 au  O             1.00      2 S               2
                        (     -23.838 eV)
    29      29       --         0.791 au  O             1.00      3 S               2
                        (      21.524 eV)
    30      30       --        13.422 au  O             1.00      4 S               2
                        (     365.226 eV)
    31      31       --       121.561 au  O             1.00      5 S               2
                        (    3307.838 eV)
    32      32      1.333      -0.331 au  O             1.00      1 P:x             2
                        (      -9.020 eV)
    33      33       --         0.347 au  O             1.00      2 P:x             2
                        (       9.437 eV)
    34      34       --         3.820 au  O             1.00      3 P:x             2
                        (     103.939 eV)
    35      35      1.333      -0.331 au  O             1.00      1 P:y             2
                        (      -9.020 eV)
    36      36       --         0.347 au  O             1.00      2 P:y             2
                        (       9.437 eV)
    37      37       --         3.820 au  O             1.00      3 P:y             2
                        (     103.939 eV)
    38      38      1.333      -0.331 au  O             1.00      1 P:z             2
                        (      -9.020 eV)
    39      39       --         0.347 au  O             1.00      2 P:z             2
                        (       9.437 eV)
    40      40       --         3.820 au  O             1.00      3 P:z             2
                        (     103.939 eV)
    41      41       --         1.071 au  O             1.00      1 D:z2            2
                        (      29.134 eV)
    42      42       --         1.071 au  O             1.00      1 D:x2-y2         2
                        (      29.134 eV)
    43      43       --         1.071 au  O             1.00      1 D:xy            2
                        (      29.134 eV)
    44      44       --         1.071 au  O             1.00      1 D:xz            2
                        (      29.134 eV)
    45      45       --         1.071 au  O             1.00      1 D:yz            2
                        (      29.134 eV)
    46      46       --         3.359 au  O             1.00      1 F:z3            2
                        (      91.410 eV)
    47      47       --         3.359 au  O             1.00      1 F:z             2
                        (      91.410 eV)
    48      48       --         3.359 au  O             1.00      1 F:xyz           2
                        (      91.410 eV)
    49      49       --         3.359 au  O             1.00      1 F:z2x           2
                        (      91.410 eV)
    50      50       --         3.359 au  O             1.00      1 F:z2y           2
                        (      91.410 eV)
    51      51       --         3.359 au  O             1.00      1 F:x             2
                        (      91.410 eV)
    52      52       --         3.359 au  O             1.00      1 F:y             2
                        (      91.410 eV)
    53      53      2.000     -18.941 au  O             1.00      1 S               3
                        (    -515.403 eV)
    54      54      2.000      -0.876 au  O             1.00      2 S               3
                        (     -23.838 eV)
    55      55       --         0.791 au  O             1.00      3 S               3
                        (      21.524 eV)
    56      56       --        13.422 au  O             1.00      4 S               3
                        (     365.226 eV)
    57      57       --       121.561 au  O             1.00      5 S               3
                        (    3307.838 eV)
    58      58      1.333      -0.331 au  O             1.00      1 P:x             3
                        (      -9.020 eV)
    59      59       --         0.347 au  O             1.00      2 P:x             3
                        (       9.437 eV)
    60      60       --         3.820 au  O             1.00      3 P:x             3
                        (     103.939 eV)
    61      61      1.333      -0.331 au  O             1.00      1 P:y             3
                        (      -9.020 eV)
    62      62       --         0.347 au  O             1.00      2 P:y             3
                        (       9.437 eV)
    63      63       --         3.820 au  O             1.00      3 P:y             3
                        (     103.939 eV)
    64      64      1.333      -0.331 au  O             1.00      1 P:z             3
                        (      -9.020 eV)
    65      65       --         0.347 au  O             1.00      2 P:z             3
                        (       9.437 eV)
    66      66       --         3.820 au  O             1.00      3 P:z             3
                        (     103.939 eV)
    67      67       --         1.071 au  O             1.00      1 D:z2            3
                        (      29.134 eV)
    68      68       --         1.071 au  O             1.00      1 D:x2-y2         3
                        (      29.134 eV)
    69      69       --         1.071 au  O             1.00      1 D:xy            3
                        (      29.134 eV)
    70      70       --         1.071 au  O             1.00      1 D:xz            3
                        (      29.134 eV)
    71      71       --         1.071 au  O             1.00      1 D:yz            3
                        (      29.134 eV)
    72      72       --         3.359 au  O             1.00      1 F:z3            3
                        (      91.410 eV)
    73      73       --         3.359 au  O             1.00      1 F:z             3
                        (      91.410 eV)
    74      74       --         3.359 au  O             1.00      1 F:xyz           3
                        (      91.410 eV)
    75      75       --         3.359 au  O             1.00      1 F:z2x           3
                        (      91.410 eV)
    76      76       --         3.359 au  O             1.00      1 F:z2y           3
                        (      91.410 eV)
    77      77       --         3.359 au  O             1.00      1 F:x             3
                        (      91.410 eV)
    78      78       --         3.359 au  O             1.00      1 F:y             3
                        (      91.410 eV)
    79      79      2.000     -14.160 au  N             1.00      1 S               4
                        (    -385.319 eV)
    80      80      2.000      -0.678 au  N             1.00      2 S               4
                        (     -18.450 eV)
    81      81       --         0.517 au  N             1.00      3 S               4
                        (      14.073 eV)
    82      82       --         6.872 au  N             1.00      4 S               4
                        (     186.990 eV)
    83      83       --        63.432 au  N             1.00      5 S               4
                        (    1726.082 eV)
    84      84      1.000      -0.260 au  N             1.00      1 P:x             4
                        (      -7.062 eV)
    85      85       --         0.281 au  N             1.00      2 P:x             4
                        (       7.649 eV)
    86      86       --         3.275 au  N             1.00      3 P:x             4
                        (      89.105 eV)
    87      87      1.000      -0.260 au  N             1.00      1 P:y             4
                        (      -7.062 eV)
    88      88       --         0.281 au  N             1.00      2 P:y             4
                        (       7.649 eV)
    89      89       --         3.275 au  N             1.00      3 P:y             4
                        (      89.105 eV)
    90      90      1.000      -0.260 au  N             1.00      1 P:z             4
                        (      -7.062 eV)
    91      91       --         0.281 au  N             1.00      2 P:z             4
                        (       7.649 eV)
    92      92       --         3.275 au  N             1.00      3 P:z             4
                        (      89.105 eV)
    93      93       --         1.250 au  N             1.00      1 D:z2            4
                        (      34.005 eV)
    94      94       --         1.250 au  N             1.00      1 D:x2-y2         4
                        (      34.005 eV)
    95      95       --         1.250 au  N             1.00      1 D:xy            4
                        (      34.005 eV)
    96      96       --         1.250 au  N             1.00      1 D:xz            4
                        (      34.005 eV)
    97      97       --         1.250 au  N             1.00      1 D:yz            4
                        (      34.005 eV)
    98      98       --         4.013 au  N             1.00      1 F:z3            4
                        (     109.190 eV)
    99      99       --         4.013 au  N             1.00      1 F:z             4
                        (     109.190 eV)
   100     100       --         4.013 au  N             1.00      1 F:xyz           4
                        (     109.190 eV)
   101     101       --         4.013 au  N             1.00      1 F:z2x           4
                        (     109.190 eV)
   102     102       --         4.013 au  N             1.00      1 F:z2y           4
                        (     109.190 eV)
   103     103       --         4.013 au  N             1.00      1 F:x             4
                        (     109.190 eV)
   104     104       --         4.013 au  N             1.00      1 F:y             4
                        (     109.190 eV)
   105     105      2.000     -14.160 au  N             1.00      1 S               5
                        (    -385.319 eV)
   106     106      2.000      -0.678 au  N             1.00      2 S               5
                        (     -18.450 eV)
   107     107       --         0.517 au  N             1.00      3 S               5
                        (      14.073 eV)
   108     108       --         6.872 au  N             1.00      4 S               5
                        (     186.990 eV)
   109     109       --        63.432 au  N             1.00      5 S               5
                        (    1726.082 eV)
   110     110      1.000      -0.260 au  N             1.00      1 P:x             5
                        (      -7.062 eV)
   111     111       --         0.281 au  N             1.00      2 P:x             5
                        (       7.649 eV)
   112     112       --         3.275 au  N             1.00      3 P:x             5
                        (      89.105 eV)
   113     113      1.000      -0.260 au  N             1.00      1 P:y             5
                        (      -7.062 eV)
   114     114       --         0.281 au  N             1.00      2 P:y             5
                        (       7.649 eV)
   115     115       --         3.275 au  N             1.00      3 P:y             5
                        (      89.105 eV)
   116     116      1.000      -0.260 au  N             1.00      1 P:z             5
                        (      -7.062 eV)
   117     117       --         0.281 au  N             1.00      2 P:z             5
                        (       7.649 eV)
   118     118       --         3.275 au  N             1.00      3 P:z             5
                        (      89.105 eV)
   119     119       --         1.250 au  N             1.00      1 D:z2            5
                        (      34.005 eV)
   120     120       --         1.250 au  N             1.00      1 D:x2-y2         5
                        (      34.005 eV)
   121     121       --         1.250 au  N             1.00      1 D:xy            5
                        (      34.005 eV)
   122     122       --         1.250 au  N             1.00      1 D:xz            5
                        (      34.005 eV)
   123     123       --         1.250 au  N             1.00      1 D:yz            5
                        (      34.005 eV)
   124     124       --         4.013 au  N             1.00      1 F:z3            5
                        (     109.190 eV)
   125     125       --         4.013 au  N             1.00      1 F:z             5
                        (     109.190 eV)
   126     126       --         4.013 au  N             1.00      1 F:xyz           5
                        (     109.190 eV)
   127     127       --         4.013 au  N             1.00      1 F:z2x           5
                        (     109.190 eV)
   128     128       --         4.013 au  N             1.00      1 F:z2y           5
                        (     109.190 eV)
   129     129       --         4.013 au  N             1.00      1 F:x             5
                        (     109.190 eV)
   130     130       --         4.013 au  N             1.00      1 F:y             5
                        (     109.190 eV)
   131     131      2.000     -10.066 au  C             1.00      1 S               6
                        (    -273.921 eV)
   132     132      2.000      -0.501 au  C             1.00      2 S               6
                        (     -13.620 eV)
   133     133       --         0.373 au  C             1.00      3 S               6
                        (      10.158 eV)
   134     134       --         5.405 au  C             1.00      4 S               6
                        (     147.073 eV)
   135     135       --        49.848 au  C             1.00      5 S               6
                        (    1356.422 eV)
   136     136      0.667      -0.193 au  C             1.00      1 P:x             6
                        (      -5.239 eV)
   137     137       --         0.169 au  C             1.00      2 P:x             6
                        (       4.589 eV)
   138     138       --         2.013 au  C             1.00      3 P:x             6
                        (      54.789 eV)
   139     139      0.667      -0.193 au  C             1.00      1 P:y             6
                        (      -5.239 eV)
   140     140       --         0.169 au  C             1.00      2 P:y             6
                        (       4.589 eV)
   141     141       --         2.013 au  C             1.00      3 P:y             6
                        (      54.789 eV)
   142     142      0.667      -0.193 au  C             1.00      1 P:z             6
                        (      -5.239 eV)
   143     143       --         0.169 au  C             1.00      2 P:z             6
                        (       4.589 eV)
   144     144       --         2.013 au  C             1.00      3 P:z             6
                        (      54.789 eV)
   145     145       --         1.243 au  C             1.00      1 D:z2            6
                        (      33.824 eV)
   146     146       --         1.243 au  C             1.00      1 D:x2-y2         6
                        (      33.824 eV)
   147     147       --         1.243 au  C             1.00      1 D:xy            6
                        (      33.824 eV)
   148     148       --         1.243 au  C             1.00      1 D:xz            6
                        (      33.824 eV)
   149     149       --         1.243 au  C             1.00      1 D:yz            6
                        (      33.824 eV)
   150     150       --         4.016 au  C             1.00      1 F:z3            6
                        (     109.271 eV)
   151     151       --         4.016 au  C             1.00      1 F:z             6
                        (     109.271 eV)
   152     152       --         4.016 au  C             1.00      1 F:xyz           6
                        (     109.271 eV)
   153     153       --         4.016 au  C             1.00      1 F:z2x           6
                        (     109.271 eV)
   154     154       --         4.016 au  C             1.00      1 F:z2y           6
                        (     109.271 eV)
   155     155       --         4.016 au  C             1.00      1 F:x             6
                        (     109.271 eV)
   156     156       --         4.016 au  C             1.00      1 F:y             6
                        (     109.271 eV)
   157     157      2.000     -10.066 au  C             1.00      1 S               7
                        (    -273.921 eV)
   158     158      2.000      -0.501 au  C             1.00      2 S               7
                        (     -13.620 eV)
   159     159       --         0.373 au  C             1.00      3 S               7
                        (      10.158 eV)
   160     160       --         5.405 au  C             1.00      4 S               7
                        (     147.073 eV)
   161     161       --        49.848 au  C             1.00      5 S               7
                        (    1356.422 eV)
   162     162      0.667      -0.193 au  C             1.00      1 P:x             7
                        (      -5.239 eV)
   163     163       --         0.169 au  C             1.00      2 P:x             7
                        (       4.589 eV)
   164     164       --         2.013 au  C             1.00      3 P:x             7
                        (      54.789 eV)
   165     165      0.667      -0.193 au  C             1.00      1 P:y             7
                        (      -5.239 eV)
   166     166       --         0.169 au  C             1.00      2 P:y             7
                        (       4.589 eV)
   167     167       --         2.013 au  C             1.00      3 P:y             7
                        (      54.789 eV)
   168     168      0.667      -0.193 au  C             1.00      1 P:z             7
                        (      -5.239 eV)
   169     169       --         0.169 au  C             1.00      2 P:z             7
                        (       4.589 eV)
   170     170       --         2.013 au  C             1.00      3 P:z             7
                        (      54.789 eV)
   171     171       --         1.243 au  C             1.00      1 D:z2            7
                        (      33.824 eV)
   172     172       --         1.243 au  C             1.00      1 D:x2-y2         7
                        (      33.824 eV)
   173     173       --         1.243 au  C             1.00      1 D:xy            7
                        (      33.824 eV)
   174     174       --         1.243 au  C             1.00      1 D:xz            7
                        (      33.824 eV)
   175     175       --         1.243 au  C             1.00      1 D:yz            7
                        (      33.824 eV)
   176     176       --         4.016 au  C             1.00      1 F:z3            7
                        (     109.271 eV)
   177     177       --         4.016 au  C             1.00      1 F:z             7
                        (     109.271 eV)
   178     178       --         4.016 au  C             1.00      1 F:xyz           7
                        (     109.271 eV)
   179     179       --         4.016 au  C             1.00      1 F:z2x           7
                        (     109.271 eV)
   180     180       --         4.016 au  C             1.00      1 F:z2y           7
                        (     109.271 eV)
   181     181       --         4.016 au  C             1.00      1 F:x             7
                        (     109.271 eV)
   182     182       --         4.016 au  C             1.00      1 F:y             7
                        (     109.271 eV)
   183     183      2.000     -10.066 au  C             1.00      1 S               8
                        (    -273.921 eV)
   184     184      2.000      -0.501 au  C             1.00      2 S               8
                        (     -13.620 eV)
   185     185       --         0.373 au  C             1.00      3 S               8
                        (      10.158 eV)
   186     186       --         5.405 au  C             1.00      4 S               8
                        (     147.073 eV)
   187     187       --        49.848 au  C             1.00      5 S               8
                        (    1356.422 eV)
   188     188      0.667      -0.193 au  C             1.00      1 P:x             8
                        (      -5.239 eV)
   189     189       --         0.169 au  C             1.00      2 P:x             8
                        (       4.589 eV)
   190     190       --         2.013 au  C             1.00      3 P:x             8
                        (      54.789 eV)
   191     191      0.667      -0.193 au  C             1.00      1 P:y             8
                        (      -5.239 eV)
   192     192       --         0.169 au  C             1.00      2 P:y             8
                        (       4.589 eV)
   193     193       --         2.013 au  C             1.00      3 P:y             8
                        (      54.789 eV)
   194     194      0.667      -0.193 au  C             1.00      1 P:z             8
                        (      -5.239 eV)
   195     195       --         0.169 au  C             1.00      2 P:z             8
                        (       4.589 eV)
   196     196       --         2.013 au  C             1.00      3 P:z             8
                        (      54.789 eV)
   197     197       --         1.243 au  C             1.00      1 D:z2            8
                        (      33.824 eV)
   198     198       --         1.243 au  C             1.00      1 D:x2-y2         8
                        (      33.824 eV)
   199     199       --         1.243 au  C             1.00      1 D:xy            8
                        (      33.824 eV)
   200     200       --         1.243 au  C             1.00      1 D:xz            8
                        (      33.824 eV)
   201     201       --         1.243 au  C             1.00      1 D:yz            8
                        (      33.824 eV)
   202     202       --         4.016 au  C             1.00      1 F:z3            8
                        (     109.271 eV)
   203     203       --         4.016 au  C             1.00      1 F:z             8
                        (     109.271 eV)
   204     204       --         4.016 au  C             1.00      1 F:xyz           8
                        (     109.271 eV)
   205     205       --         4.016 au  C             1.00      1 F:z2x           8
                        (     109.271 eV)
   206     206       --         4.016 au  C             1.00      1 F:z2y           8
                        (     109.271 eV)
   207     207       --         4.016 au  C             1.00      1 F:x             8
                        (     109.271 eV)
   208     208       --         4.016 au  C             1.00      1 F:y             8
                        (     109.271 eV)
   209     209      2.000     -10.066 au  C             1.00      1 S               9
                        (    -273.921 eV)
   210     210      2.000      -0.501 au  C             1.00      2 S               9
                        (     -13.620 eV)
   211     211       --         0.373 au  C             1.00      3 S               9
                        (      10.158 eV)
   212     212       --         5.405 au  C             1.00      4 S               9
                        (     147.073 eV)
   213     213       --        49.848 au  C             1.00      5 S               9
                        (    1356.422 eV)
   214     214      0.667      -0.193 au  C             1.00      1 P:x             9
                        (      -5.239 eV)
   215     215       --         0.169 au  C             1.00      2 P:x             9
                        (       4.589 eV)
   216     216       --         2.013 au  C             1.00      3 P:x             9
                        (      54.789 eV)
   217     217      0.667      -0.193 au  C             1.00      1 P:y             9
                        (      -5.239 eV)
   218     218       --         0.169 au  C             1.00      2 P:y             9
                        (       4.589 eV)
   219     219       --         2.013 au  C             1.00      3 P:y             9
                        (      54.789 eV)
   220     220      0.667      -0.193 au  C             1.00      1 P:z             9
                        (      -5.239 eV)
   221     221       --         0.169 au  C             1.00      2 P:z             9
                        (       4.589 eV)
   222     222       --         2.013 au  C             1.00      3 P:z             9
                        (      54.789 eV)
   223     223       --         1.243 au  C             1.00      1 D:z2            9
                        (      33.824 eV)
   224     224       --         1.243 au  C             1.00      1 D:x2-y2         9
                        (      33.824 eV)
   225     225       --         1.243 au  C             1.00      1 D:xy            9
                        (      33.824 eV)
   226     226       --         1.243 au  C             1.00      1 D:xz            9
                        (      33.824 eV)
   227     227       --         1.243 au  C             1.00      1 D:yz            9
                        (      33.824 eV)
   228     228       --         4.016 au  C             1.00      1 F:z3            9
                        (     109.271 eV)
   229     229       --         4.016 au  C             1.00      1 F:z             9
                        (     109.271 eV)
   230     230       --         4.016 au  C             1.00      1 F:xyz           9
                        (     109.271 eV)
   231     231       --         4.016 au  C             1.00      1 F:z2x           9
                        (     109.271 eV)
   232     232       --         4.016 au  C             1.00      1 F:z2y           9
                        (     109.271 eV)
   233     233       --         4.016 au  C             1.00      1 F:x             9
                        (     109.271 eV)
   234     234       --         4.016 au  C             1.00      1 F:y             9
                        (     109.271 eV)
   235     235      2.000     -10.066 au  C             1.00      1 S              10
                        (    -273.921 eV)
   236     236      2.000      -0.501 au  C             1.00      2 S              10
                        (     -13.620 eV)
   237     237       --         0.373 au  C             1.00      3 S              10
                        (      10.158 eV)
   238     238       --         5.405 au  C             1.00      4 S              10
                        (     147.073 eV)
   239     239       --        49.848 au  C             1.00      5 S              10
                        (    1356.422 eV)
   240     240      0.667      -0.193 au  C             1.00      1 P:x            10
                        (      -5.239 eV)
   241     241       --         0.169 au  C             1.00      2 P:x            10
                        (       4.589 eV)
   242     242       --         2.013 au  C             1.00      3 P:x            10
                        (      54.789 eV)
   243     243      0.667      -0.193 au  C             1.00      1 P:y            10
                        (      -5.239 eV)
   244     244       --         0.169 au  C             1.00      2 P:y            10
                        (       4.589 eV)
   245     245       --         2.013 au  C             1.00      3 P:y            10
                        (      54.789 eV)
   246     246      0.667      -0.193 au  C             1.00      1 P:z            10
                        (      -5.239 eV)
   247     247       --         0.169 au  C             1.00      2 P:z            10
                        (       4.589 eV)
   248     248       --         2.013 au  C             1.00      3 P:z            10
                        (      54.789 eV)
   249     249       --         1.243 au  C             1.00      1 D:z2           10
                        (      33.824 eV)
   250     250       --         1.243 au  C             1.00      1 D:x2-y2        10
                        (      33.824 eV)
   251     251       --         1.243 au  C             1.00      1 D:xy           10
                        (      33.824 eV)
   252     252       --         1.243 au  C             1.00      1 D:xz           10
                        (      33.824 eV)
   253     253       --         1.243 au  C             1.00      1 D:yz           10
                        (      33.824 eV)
   254     254       --         4.016 au  C             1.00      1 F:z3           10
                        (     109.271 eV)
   255     255       --         4.016 au  C             1.00      1 F:z            10
                        (     109.271 eV)
   256     256       --         4.016 au  C             1.00      1 F:xyz          10
                        (     109.271 eV)
   257     257       --         4.016 au  C             1.00      1 F:z2x          10
                        (     109.271 eV)
   258     258       --         4.016 au  C             1.00      1 F:z2y          10
                        (     109.271 eV)
   259     259       --         4.016 au  C             1.00      1 F:x            10
                        (     109.271 eV)
   260     260       --         4.016 au  C             1.00      1 F:y            10
                        (     109.271 eV)
   261     261      1.000      -0.240 au  H             1.00      1 S              11
                        (      -6.532 eV)
   262     262       --         0.088 au  H             1.00      2 S              11
                        (       2.394 eV)
   263     263       --         1.502 au  H             1.00      3 S              11
                        (      40.869 eV)
   264     264       --         0.406 au  H             1.00      1 P:x            11
                        (      11.051 eV)
   265     265       --         0.406 au  H             1.00      1 P:y            11
                        (      11.051 eV)
   266     266       --         0.406 au  H             1.00      1 P:z            11
                        (      11.051 eV)
   267     267       --         2.569 au  H             1.00      1 D:z2           11
                        (      69.917 eV)
   268     268       --         2.569 au  H             1.00      1 D:x2-y2        11
                        (      69.917 eV)
   269     269       --         2.569 au  H             1.00      1 D:xy           11
                        (      69.917 eV)
   270     270       --         2.569 au  H             1.00      1 D:xz           11
                        (      69.917 eV)
   271     271       --         2.569 au  H             1.00      1 D:yz           11
                        (      69.917 eV)
   272     272      1.000      -0.240 au  H             1.00      1 S              12
                        (      -6.532 eV)
   273     273       --         0.088 au  H             1.00      2 S              12
                        (       2.394 eV)
   274     274       --         1.502 au  H             1.00      3 S              12
                        (      40.869 eV)
   275     275       --         0.406 au  H             1.00      1 P:x            12
                        (      11.051 eV)
   276     276       --         0.406 au  H             1.00      1 P:y            12
                        (      11.051 eV)
   277     277       --         0.406 au  H             1.00      1 P:z            12
                        (      11.051 eV)
   278     278       --         2.569 au  H             1.00      1 D:z2           12
                        (      69.917 eV)
   279     279       --         2.569 au  H             1.00      1 D:x2-y2        12
                        (      69.917 eV)
   280     280       --         2.569 au  H             1.00      1 D:xy           12
                        (      69.917 eV)
   281     281       --         2.569 au  H             1.00      1 D:xz           12
                        (      69.917 eV)
   282     282       --         2.569 au  H             1.00      1 D:yz           12
                        (      69.917 eV)
   283     283      1.000      -0.240 au  H             1.00      1 S              13
                        (      -6.532 eV)
   284     284       --         0.088 au  H             1.00      2 S              13
                        (       2.394 eV)
   285     285       --         1.502 au  H             1.00      3 S              13
                        (      40.869 eV)
   286     286       --         0.406 au  H             1.00      1 P:x            13
                        (      11.051 eV)
   287     287       --         0.406 au  H             1.00      1 P:y            13
                        (      11.051 eV)
   288     288       --         0.406 au  H             1.00      1 P:z            13
                        (      11.051 eV)
   289     289       --         2.569 au  H             1.00      1 D:z2           13
                        (      69.917 eV)
   290     290       --         2.569 au  H             1.00      1 D:x2-y2        13
                        (      69.917 eV)
   291     291       --         2.569 au  H             1.00      1 D:xy           13
                        (      69.917 eV)
   292     292       --         2.569 au  H             1.00      1 D:xz           13
                        (      69.917 eV)
   293     293       --         2.569 au  H             1.00      1 D:yz           13
                        (      69.917 eV)
   294     294      1.000      -0.240 au  H             1.00      1 S              14
                        (      -6.532 eV)
   295     295       --         0.088 au  H             1.00      2 S              14
                        (       2.394 eV)
   296     296       --         1.502 au  H             1.00      3 S              14
                        (      40.869 eV)
   297     297       --         0.406 au  H             1.00      1 P:x            14
                        (      11.051 eV)
   298     298       --         0.406 au  H             1.00      1 P:y            14
                        (      11.051 eV)
   299     299       --         0.406 au  H             1.00      1 P:z            14
                        (      11.051 eV)
   300     300       --         2.569 au  H             1.00      1 D:z2           14
                        (      69.917 eV)
   301     301       --         2.569 au  H             1.00      1 D:x2-y2        14
                        (      69.917 eV)
   302     302       --         2.569 au  H             1.00      1 D:xy           14
                        (      69.917 eV)
   303     303       --         2.569 au  H             1.00      1 D:xz           14
                        (      69.917 eV)
   304     304       --         2.569 au  H             1.00      1 D:yz           14
                        (      69.917 eV)
   305     305      1.000      -0.240 au  H             1.00      1 S              15
                        (      -6.532 eV)
   306     306       --         0.088 au  H             1.00      2 S              15
                        (       2.394 eV)
   307     307       --         1.502 au  H             1.00      3 S              15
                        (      40.869 eV)
   308     308       --         0.406 au  H             1.00      1 P:x            15
                        (      11.051 eV)
   309     309       --         0.406 au  H             1.00      1 P:y            15
                        (      11.051 eV)
   310     310       --         0.406 au  H             1.00      1 P:z            15
                        (      11.051 eV)
   311     311       --         2.569 au  H             1.00      1 D:z2           15
                        (      69.917 eV)
   312     312       --         2.569 au  H             1.00      1 D:x2-y2        15
                        (      69.917 eV)
   313     313       --         2.569 au  H             1.00      1 D:xy           15
                        (      69.917 eV)
   314     314       --         2.569 au  H             1.00      1 D:xz           15
                        (      69.917 eV)
   315     315       --         2.569 au  H             1.00      1 D:yz           15
                        (      69.917 eV)
   316     316      1.000      -0.240 au  H             1.00      1 S              16
                        (      -6.532 eV)
   317     317       --         0.088 au  H             1.00      2 S              16
                        (       2.394 eV)
   318     318       --         1.502 au  H             1.00      3 S              16
                        (      40.869 eV)
   319     319       --         0.406 au  H             1.00      1 P:x            16
                        (      11.051 eV)
   320     320       --         0.406 au  H             1.00      1 P:y            16
                        (      11.051 eV)
   321     321       --         0.406 au  H             1.00      1 P:z            16
                        (      11.051 eV)
   322     322       --         2.569 au  H             1.00      1 D:z2           16
                        (      69.917 eV)
   323     323       --         2.569 au  H             1.00      1 D:x2-y2        16
                        (      69.917 eV)
   324     324       --         2.569 au  H             1.00      1 D:xy           16
                        (      69.917 eV)
   325     325       --         2.569 au  H             1.00      1 D:xz           16
                        (      69.917 eV)
   326     326       --         2.569 au  H             1.00      1 D:yz           16
                        (      69.917 eV)
   327     327      1.000      -0.240 au  H             1.00      1 S              17
                        (      -6.532 eV)
   328     328       --         0.088 au  H             1.00      2 S              17
                        (       2.394 eV)
   329     329       --         1.502 au  H             1.00      3 S              17
                        (      40.869 eV)
   330     330       --         0.406 au  H             1.00      1 P:x            17
                        (      11.051 eV)
   331     331       --         0.406 au  H             1.00      1 P:y            17
                        (      11.051 eV)
   332     332       --         0.406 au  H             1.00      1 P:z            17
                        (      11.051 eV)
   333     333       --         2.569 au  H             1.00      1 D:z2           17
                        (      69.917 eV)
   334     334       --         2.569 au  H             1.00      1 D:x2-y2        17
                        (      69.917 eV)
   335     335       --         2.569 au  H             1.00      1 D:xy           17
                        (      69.917 eV)
   336     336       --         2.569 au  H             1.00      1 D:xz           17
                        (      69.917 eV)
   337     337       --         2.569 au  H             1.00      1 D:yz           17
                        (      69.917 eV)
   338     338      1.000      -0.240 au  H             1.00      1 S              18
                        (      -6.532 eV)
   339     339       --         0.088 au  H             1.00      2 S              18
                        (       2.394 eV)
   340     340       --         1.502 au  H             1.00      3 S              18
                        (      40.869 eV)
   341     341       --         0.406 au  H             1.00      1 P:x            18
                        (      11.051 eV)
   342     342       --         0.406 au  H             1.00      1 P:y            18
                        (      11.051 eV)
   343     343       --         0.406 au  H             1.00      1 P:z            18
                        (      11.051 eV)
   344     344       --         2.569 au  H             1.00      1 D:z2           18
                        (      69.917 eV)
   345     345       --         2.569 au  H             1.00      1 D:x2-y2        18
                        (      69.917 eV)
   346     346       --         2.569 au  H             1.00      1 D:xy           18
                        (      69.917 eV)
   347     347       --         2.569 au  H             1.00      1 D:xz           18
                        (      69.917 eV)
   348     348       --         2.569 au  H             1.00      1 D:yz           18
                        (      69.917 eV)



 ================================
 (Slater-type)  F U N C T I O N S  ***  (Basis and Fit)  ***
 ================================
  

 Atom Type    1  (O)
 ==============

 Valence Basis Sets:  10
 -----------------------
   1 S    9.800000
   1 S    6.800000
   2 S    7.580000
   2 S    2.880000
   2 S    1.720000
   2 P    4.080000
   2 P    2.080000
   2 P    1.120000
   3 D    2.000000
   4 F    3.000000

 Atom Type    2  (N)
 ==============

 Valence Basis Sets:  10
 -----------------------
   1 S    8.740000
   1 S    5.900000
   2 S    5.150000
   2 S    2.500000
   2 S    1.500000
   2 P    3.680000
   2 P    1.880000
   2 P    1.000000
   3 D    2.200000
   4 F    3.300000

 Atom Type    3  (C)
 ==============

 Valence Basis Sets:  10
 -----------------------
   1 S    7.680000
   1 S    5.000000
   2 S    1.280000
   2 S    2.100000
   2 S    4.600000
   2 P    0.820000
   2 P    1.480000
   2 P    2.940000
   3 D    2.200000
   4 F    3.300000

 Atom Type    4  (H)
 ==============

 Valence Basis Sets:   5
 -----------------------
   1 S    0.690000
   1 S    0.920000
   1 S    1.580000
   2 P    1.250000
   3 D    2.500000


 BAS: List of all Elementary Cartesian Basis Functions
 =====================================================

 The numbering in the list below (to the right of the function characteristics) is referred
 to in print-outs of MO eigenvectors and Mulliken populations in the BAS representation
 (as contrasted to the SFO representation).

 Notes:
 1. The functions are characterized by a polynomial prefactor (powers of x,y,z and r) and
    an exponential decay factor alpha.
 2. Since the basis sets are specific for an atom TYPE, the individual functions occur on
    all atoms of that type.
 3. The word 'Core' in the left margin signals that it is a Core Function (CF) : not a
    degree of freedom in the valence set, but only used to ensure orthogonalization of
    the other valence basis functions on the frozen Core Orbitals.


 (power of) X  Y  Z  R     Alpha  on Atom
            ==========     =====     ==========

 O                                    1    2    3
                                  ---------------------------------------------------------------------------
            0  0  0  0     9.800      1   31   61
            0  0  0  0     6.800      2   32   62
            0  0  0  1     7.580      3   33   63
            0  0  0  1     2.880      4   34   64
            0  0  0  1     1.720      5   35   65
            1  0  0  0     4.080      6   36   66
            0  1  0  0     4.080      7   37   67
            0  0  1  0     4.080      8   38   68
            1  0  0  0     2.080      9   39   69
            0  1  0  0     2.080     10   40   70
            0  0  1  0     2.080     11   41   71
            1  0  0  0     1.120     12   42   72
            0  1  0  0     1.120     13   43   73
            0  0  1  0     1.120     14   44   74
            2  0  0  0     2.000     15   45   75
            1  1  0  0     2.000     16   46   76
            1  0  1  0     2.000     17   47   77
            0  2  0  0     2.000     18   48   78
            0  1  1  0     2.000     19   49   79
            0  0  2  0     2.000     20   50   80
            3  0  0  0     3.000     21   51   81
            2  1  0  0     3.000     22   52   82
            2  0  1  0     3.000     23   53   83
            1  2  0  0     3.000     24   54   84
            1  1  1  0     3.000     25   55   85
            1  0  2  0     3.000     26   56   86
            0  3  0  0     3.000     27   57   87
            0  2  1  0     3.000     28   58   88
            0  1  2  0     3.000     29   59   89
            0  0  3  0     3.000     30   60   90

 N                                    4    5
                                  ---------------------------------------------------------------------------
            0  0  0  0     8.740     91  121
            0  0  0  0     5.900     92  122
            0  0  0  1     5.150     93  123
            0  0  0  1     2.500     94  124
            0  0  0  1     1.500     95  125
            1  0  0  0     3.680     96  126
            0  1  0  0     3.680     97  127
            0  0  1  0     3.680     98  128
            1  0  0  0     1.880     99  129
            0  1  0  0     1.880    100  130
            0  0  1  0     1.880    101  131
            1  0  0  0     1.000    102  132
            0  1  0  0     1.000    103  133
            0  0  1  0     1.000    104  134
            2  0  0  0     2.200    105  135
            1  1  0  0     2.200    106  136
            1  0  1  0     2.200    107  137
            0  2  0  0     2.200    108  138
            0  1  1  0     2.200    109  139
            0  0  2  0     2.200    110  140
            3  0  0  0     3.300    111  141
            2  1  0  0     3.300    112  142
            2  0  1  0     3.300    113  143
            1  2  0  0     3.300    114  144
            1  1  1  0     3.300    115  145
            1  0  2  0     3.300    116  146
            0  3  0  0     3.300    117  147
            0  2  1  0     3.300    118  148
            0  1  2  0     3.300    119  149
            0  0  3  0     3.300    120  150

 C                                    6    7    8    9   10
                                  ---------------------------------------------------------------------------
            0  0  0  0     7.680    151  181  211  241  271
            0  0  0  0     5.000    152  182  212  242  272
            0  0  0  1     1.280    153  183  213  243  273
            0  0  0  1     2.100    154  184  214  244  274
            0  0  0  1     4.600    155  185  215  245  275
            1  0  0  0     0.820    156  186  216  246  276
            0  1  0  0     0.820    157  187  217  247  277
            0  0  1  0     0.820    158  188  218  248  278
            1  0  0  0     1.480    159  189  219  249  279
            0  1  0  0     1.480    160  190  220  250  280
            0  0  1  0     1.480    161  191  221  251  281
            1  0  0  0     2.940    162  192  222  252  282
            0  1  0  0     2.940    163  193  223  253  283
            0  0  1  0     2.940    164  194  224  254  284
            2  0  0  0     2.200    165  195  225  255  285
            1  1  0  0     2.200    166  196  226  256  286
            1  0  1  0     2.200    167  197  227  257  287
            0  2  0  0     2.200    168  198  228  258  288
            0  1  1  0     2.200    169  199  229  259  289
            0  0  2  0     2.200    170  200  230  260  290
            3  0  0  0     3.300    171  201  231  261  291
            2  1  0  0     3.300    172  202  232  262  292
            2  0  1  0     3.300    173  203  233  263  293
            1  2  0  0     3.300    174  204  234  264  294
            1  1  1  0     3.300    175  205  235  265  295
            1  0  2  0     3.300    176  206  236  266  296
            0  3  0  0     3.300    177  207  237  267  297
            0  2  1  0     3.300    178  208  238  268  298
            0  1  2  0     3.300    179  209  239  269  299
            0  0  3  0     3.300    180  210  240  270  300

 H                                   11   12   13   14   15   16   17   18
                                  ---------------------------------------------------------------------------
            0  0  0  0     0.690    301  313  325  337  349  361  373  385
            0  0  0  0     0.920    302  314  326  338  350  362  374  386
            0  0  0  0     1.580    303  315  327  339  351  363  375  387
            1  0  0  0     1.250    304  316  328  340  352  364  376  388
            0  1  0  0     1.250    305  317  329  341  353  365  377  389
            0  0  1  0     1.250    306  318  330  342  354  366  378  390
            2  0  0  0     2.500    307  319  331  343  355  367  379  391
            1  1  0  0     2.500    308  320  332  344  356  368  380  392
            1  0  1  0     2.500    309  321  333  345  357  369  381  393
            0  2  0  0     2.500    310  322  334  346  358  370  382  394
            0  1  1  0     2.500    311  323  335  347  359  371  383  395
            0  0  2  0     2.500    312  324  336  348  360  372  384  396

 Total number of charge fitting functions (nprimf)      1240
 Total number of Cartesian basis functions (naos)        396
 Total number of Cartesian core functions  (ncos)          0

 ***************************************************************************************************



                                              ***********************
                                              *  T E C H N I C A L  *
                                              ***********************
  



 =============================================================
 P A R A L L E L I Z A T I O N  and  V E C T O R I Z A T I O N
 =============================================================
  
 Nr of parallel processes:                                1
 Maximum vector length in NumInt loops:                 128



 =====================
 S C F   U P D A T E S
 =====================
  
 Max. nr. of cycles:                               200
 Convergence criterion:                              0.0000010000
   secondary criterion:                              0.0010000000

 Mix parameter (when DIIS does not apply):           0.2000000000
 Mixed ADIIS+SDIIS will be used                  
    Max number of expansion vectors:                10
    Pure ADIIS when Max([F,P]) is above              0.1000000000
    Pure SDIIS when Max([F,P]) is below              0.0010000000
 Automatic ElectronSmearing (in case of problematic SCF convergence) disabled



 =================
 P R E C I S I O N  ***  (General: NumInt, NeglectFunctionTails, ...)  ***
 =================
  

 NumInt:           Target precision:                 4.0000000000
 -------           Initial precision:                4.0000000000
                   Min. precision (optimization):    4.0000000000

 Neglect Functions:          Basis functions:        0.1000000000E-05
 ------------------          Fit functions:          0.1000000000E-05



 ===========================
 L I N E A R   S C A L I N G
 ===========================
  

 Cut-off radii density fit:                        0.1000000000E-07
 Overlap cut-off criterion AO matrix elements:     0.1000000000E-05
 Cut-offs for Coulomb potential and fitted density:0.1000000000E-07
 Cut-off criterion for Coulomb multipole terms:    0.1000000000E-07
 Progressive Convergence parameter:                 0.000000000    
 ***************************************************************************************************



                                            ***************************
                                            *  C O M P U T A T I O N  *
                                            ***************************
  

 Number of elements of the density matrix on this node (used, total):     78606     78606



 ===========================================
 Numerical Integration : Fuzzy Cells (Becke)
 ===========================================
  
 Becke grid quality: NORMAL         
  
 Lebedev angular grid order:             min:  11 max:  23
 Nr. of radial points:                   min:  46 max:  52

 Total nr. of points:     116871
 Nr. of blocks:              914
 Block length:               128
 Nr. of dummy points:        121


 Test of Precision of the Numerical Integration Grid
 ===================================================

 Integral of the Total Core Density:                   0.00000000000000



 ========================
 Density Fitting (zlmFit)
 ========================
  
 ZlmFit Fit Quality: NORMAL         
  
 Max L-expansion:                        min:   6 max:   7
 Nr. of radial interpolation points:     min:  39 max:  54



 =====
 S C F  ***  ScaSCF  ***
 =====
  
 Initial density matrix is calculated as sum of fragments

 CYCLE    1
 SCF Error: norm([F,P])=      7.726887093105, max([F,P])=      1.466981070167
 orbitals (Q,E):
 ---------------
 A :29...48          ( 2.00    -0.5169)  ( 2.00    -0.5169)  ( 2.00    -0.5116)  ( 2.00    -0.4886)
                     ( 2.00    -0.4729)  ( 2.00    -0.4104)  ( 2.00    -0.3992)  ( 2.00    -0.3909)
                     ( 2.00    -0.3673)  ( 2.00    -0.3452)  ( 0.00    -0.2511)  ( 0.00    -0.1735)
                     ( 0.00    -0.0975)  ( 0.00    -0.0577)  ( 0.00    -0.0471)  ( 0.00    -0.0402)
                     ( 0.00    -0.0264)  ( 0.00    -0.0228)  ( 0.00    -0.0129)  ( 0.00    -0.0056)

 CYCLE    2
   MIX coefficients:  0.8000  0.2000
 SCF Error: norm([F,P])=      1.424294025155, max([F,P])=      0.193427706868
 orbitals (Q,E):
 ---------------
 A :29...39          ( 2.00    -0.4731)  ( 2.00    -0.4598)  ( 2.00    -0.4555)  ( 2.00    -0.4336)
                     ( 2.00    -0.4174)  ( 2.00    -0.3444)  ( 2.00    -0.3291)  ( 2.00    -0.3228)
                     ( 2.00    -0.3179)  ( 2.00    -0.3077)  ( 0.00    -0.2242)

 CYCLE    3
  SDIIS (wt  0.000): -0.6031  1.6031
 A-DIIS (wt  1.000):  0.0000  1.0000
  DIIS coefficients:  0.0000  1.0000
 SCF Error: norm([F,P])=      0.651872699448, max([F,P])=      0.088202704742
 orbitals (Q,E):
 ---------------
 A :29...39          ( 2.00    -0.3019)  ( 2.00    -0.2886)  ( 2.00    -0.2850)  ( 2.00    -0.2772)
                     ( 2.00    -0.2678)  ( 2.00    -0.2126)  ( 2.00    -0.1914)  ( 2.00    -0.1623)
                     ( 2.00    -0.1513)  ( 2.00    -0.1358)  ( 0.00    -0.1131)

 CYCLE    4
  SDIIS (wt  0.000):  0.2545  0.2582  0.4872
 A-DIIS (wt  1.000): -0.0000  0.6877  0.3123
  DIIS coefficients: -0.0000  0.6877  0.3123
 SCF Error: norm([F,P])=      1.071403024687, max([F,P])=      0.153680021905
 orbitals (Q,E):
 ---------------
 A :29...39          ( 2.00    -0.3677)  ( 2.00    -0.3453)  ( 2.00    -0.3420)  ( 2.00    -0.3381)
                     ( 2.00    -0.3240)  ( 2.00    -0.2440)  ( 2.00    -0.2344)  ( 2.00    -0.2270)
                     ( 2.00    -0.2172)  ( 2.00    -0.2071)  ( 0.00    -0.1330)

 CYCLE    5
  SDIIS (wt  0.217):  0.0943  0.3177  0.2944  0.2936
 A-DIIS (wt  0.783):  0.0000  0.1399  0.0000  0.8601
  DIIS coefficients:  0.0204  0.1784  0.0638  0.7374
 SCF Error: norm([F,P])=      0.366943072368, max([F,P])=      0.078562430239
 orbitals (Q,E):
 ---------------
 A :29...39          ( 2.00    -0.3703)  ( 2.00    -0.3503)  ( 2.00    -0.3478)  ( 2.00    -0.3407)
                     ( 2.00    -0.3207)  ( 2.00    -0.3176)  ( 2.00    -0.2792)  ( 2.00    -0.2295)
                     ( 2.00    -0.2119)  ( 2.00    -0.1943)  ( 0.00    -0.1714)

 CYCLE    6
  SDIIS (wt  0.000): -0.0152  0.2651  0.0688  0.5427  0.1386
 A-DIIS (wt  1.000):  0.0000  0.0000  0.0000  0.8252  0.1748
  DIIS coefficients:  0.0000  0.0000  0.0000  0.8252  0.1748
 SCF Error: norm([F,P])=      1.133734736007, max([F,P])=      0.223944695860
 orbitals (Q,E):
 ---------------
 A :29...39          ( 2.00    -0.3866)  ( 2.00    -0.3747)  ( 2.00    -0.3682)  ( 2.00    -0.3628)
                     ( 2.00    -0.3426)  ( 2.00    -0.2909)  ( 2.00    -0.2643)  ( 2.00    -0.2500)
                     ( 2.00    -0.2400)  ( 2.00    -0.2374)  ( 0.00    -0.1763)

 CYCLE    7
  SDIIS (wt  0.156): -0.0310  0.1489  0.0564  0.4348 -0.0051  0.3960
 A-DIIS (wt  0.844):  0.0000  0.0000  0.0000  0.4939  0.0000  0.5061
  DIIS coefficients: -0.0048  0.0232  0.0088  0.4846 -0.0008  0.4889
 SCF Error: norm([F,P])=      0.364429233204, max([F,P])=      0.084544827826
 orbitals (Q,E):
 ---------------
 A :29...39          ( 2.00    -0.3741)  ( 2.00    -0.3611)  ( 2.00    -0.3552)  ( 2.00    -0.3485)
                     ( 2.00    -0.3378)  ( 2.00    -0.2627)  ( 2.00    -0.2447)  ( 2.00    -0.2354)
                     ( 2.00    -0.2289)  ( 2.00    -0.2227)  ( 0.00    -0.1589)

 CYCLE    8
  SDIIS (wt  0.637):  0.0151  0.0192  0.0473  0.3160 -0.0313  0.4115  0.2221
 A-DIIS (wt  0.363):  0.0000  0.0000  0.0000  0.0242  0.0000  0.1361  0.8397
  DIIS coefficients:  0.0096  0.0122  0.0301  0.2100 -0.0199  0.3114  0.4466
 SCF Error: norm([F,P])=      0.149900891972, max([F,P])=      0.036986043949
 orbitals (Q,E):
 ---------------
 A :29...39          ( 2.00    -0.3789)  ( 2.00    -0.3608)  ( 2.00    -0.3557)  ( 2.00    -0.3512)
                     ( 2.00    -0.3338)  ( 2.00    -0.2665)  ( 2.00    -0.2461)  ( 2.00    -0.2377)
                     ( 2.00    -0.2335)  ( 2.00    -0.2278)  ( 0.00    -0.1554)

 CYCLE    9
  SDIIS (wt  0.637): -0.0040  0.0124  0.0105  0.1487 -0.0188  0.2143  0.3798  0.2571
 A-DIIS (wt  0.363):  0.0000  0.0000  0.0000  0.0000  0.0000  0.0000  0.5303  0.4697
  DIIS coefficients: -0.0026  0.0079  0.0067  0.0946 -0.0120  0.1364  0.4345  0.3344
 SCF Error: norm([F,P])=      0.162756852220, max([F,P])=      0.037058954848
 orbitals (Q,E):
 ---------------
 A :29...39          ( 2.00    -0.3770)  ( 2.00    -0.3620)  ( 2.00    -0.3565)  ( 2.00    -0.3508)
                     ( 2.00    -0.3351)  ( 2.00    -0.2634)  ( 2.00    -0.2446)  ( 2.00    -0.2374)
                     ( 2.00    -0.2299)  ( 2.00    -0.2277)  ( 0.00    -0.1566)

 CYCLE   10
  SDIIS (wt  0.949): -0.0008 -0.0010  0.0016  0.0390 -0.0094  0.0699  0.3187  0.2593  0.3228
 A-DIIS (wt  0.051):  0.0000  0.0000  0.0000  0.0000  0.0000  0.0000  0.0000  0.0000  1.0000
  DIIS coefficients: -0.0008 -0.0009  0.0015  0.0370 -0.0090  0.0663  0.3024  0.2460  0.3574
 SCF Error: norm([F,P])=      0.024309121925, max([F,P])=      0.006060973826
 orbitals (Q,E):
 ---------------
 A :29...39          ( 2.00    -0.3768)  ( 2.00    -0.3613)  ( 2.00    -0.3561)  ( 2.00    -0.3503)
                     ( 2.00    -0.3357)  ( 2.00    -0.2638)  ( 2.00    -0.2450)  ( 2.00    -0.2364)
                     ( 2.00    -0.2293)  ( 2.00    -0.2286)  ( 0.00    -0.1572)

 CYCLE   11
  SDIIS (wt  0.992): -0.0003  0.0003  0.0010  0.0092 -0.0038  0.0177  0.1266  0.1066  0.2478  0.4949
[...]
       0.283  0.00    43 A         24.59%     2 S               2.394  0.00    14 H
                                   22.95%     1 S              -6.532  1.00    14 H
                                   11.27%     2 S               2.394  0.00    13 H
                                   -9.04%     2 P:y             4.589  0.00     7 C
                                    7.23%     2 S               2.394  0.00    12 H
                                    7.15%     1 P:x            -5.239  0.67     9 C
                                    6.41%     1 P:x            -5.239  0.67     6 C
                                    6.37%     1 S              -6.532  1.00    15 H
                                    5.01%     1 S              -6.532  1.00    18 H
                                   -4.99%     2 P:y             4.589  0.00     9 C
                                    3.63%     1 P:x            -9.020  1.33     3 O
                                    3.20%     2 P:z             4.589  0.00     6 C
                                   -2.82%     2 P:y             4.589  0.00     8 C
                                    2.72%     1 P:z            -5.239  0.67     9 C
                                    2.41%     1 S              -6.532  1.00    16 H
                                    2.25%     1 P:x            -5.239  0.67     7 C
                                    2.25%     2 S               2.394  0.00    15 H
                                    2.12%     1 S              -6.532  1.00    13 H
                                   -2.03%     2 P:z             4.589  0.00     8 C
                                    2.02%     1 S              -6.532  1.00    12 H
                                   -2.00%     2 P:z             4.589  0.00    10 C
                                   -1.97%     2 P:x             4.589  0.00     6 C
                                    1.95%     1 P:y            -7.062  1.00     4 N
                                    1.94%     2 S               2.394  0.00    18 H
                                   -1.80%     2 P:y             4.589  0.00    10 C
                                   -1.72%     2 P:y             4.589  0.00     6 C
                                    1.71%     1 P:x            -7.062  1.00     5 N
                                    1.66%     2 S               2.394  0.00    17 H
                                   -1.58%     1 P:y            -5.239  0.67     7 C
                                   -1.55%     2 P:y             7.649  0.00     5 N
                                    1.41%     1 P:y            -5.239  0.67     9 C
                                    1.40%     2 S             -13.620  2.00     6 C
                                   -1.39%     3 S              40.869  0.00    14 H
                                    1.33%     2 P:x             4.589  0.00     9 C
                                    1.32%     1 P:z            -5.239  0.67     8 C
                                   -1.28%     2 P:z             7.649  0.00     5 N
                                   -1.14%     3 S              10.158  0.00     8 C
                                   -1.03%     2 P:z             4.589  0.00     7 C
       0.399  0.00    44 A         28.64%     1 S              -6.532  1.00    11 H
                                   15.65%     1 S              -6.532  1.00    12 H
                                   15.48%     2 S               2.394  0.00    12 H
                                   13.12%     2 S               2.394  0.00    11 H
                                    8.45%     1 P:x            -5.239  0.67     9 C
                                    5.84%     1 P:x            -5.239  0.67     6 C
                                   -5.48%     2 P:z             7.649  0.00     4 N
                                    5.31%     2 S               2.394  0.00    13 H
                                    5.31%     1 P:y            -5.239  0.67     9 C
                                   -4.93%     2 P:z             4.589  0.00     8 C
                                   -3.91%     2 P:y             4.589  0.00     6 C
                                    3.27%     2 S               2.394  0.00    16 H
                                    3.02%     1 P:x            -5.239  0.67     7 C
                                    3.00%     1 S              -6.532  1.00    13 H
                                   -2.91%     2 P:y             4.589  0.00     7 C
                                    2.51%     1 P:x            -9.020  1.33     3 O
                                   -2.44%     2 P:z             4.589  0.00     7 C
                                   -2.24%     1 P:y            -5.239  0.67     7 C
                                    2.08%     1 S              -6.532  1.00    18 H
                                    1.97%     2 S             -18.450  2.00     4 N
                                   -1.88%     2 P:x             4.589  0.00     8 C
                                    1.78%     1 P:z            -5.239  0.67     9 C
                                    1.68%     1 S              -6.532  1.00    16 H
                                    1.64%     1 P:x            -7.062  1.00     5 N
                                    1.52%     1 P:z            -5.239  0.67     6 C
                                   -1.49%     2 P:y             4.589  0.00    10 C
                                   -1.48%     3 S              14.073  0.00     4 N
                                    1.41%     1 P:y            -9.020  1.33     2 O
                                    1.41%     1 P:z            -9.020  1.33     3 O
                                   -1.24%     2 S               2.394  0.00    17 H
                                   -1.18%     2 P:x             4.589  0.00     7 C
                                    1.12%     1 P:y            -9.020  1.33     3 O
       0.842  0.00    45 A         24.59%     1 S              -6.532  1.00    15 H
                                   16.69%     1 S              -6.532  1.00    17 H
                                   15.60%     2 S               2.394  0.00    17 H
                                   11.22%     2 S               2.394  0.00    18 H
                                    9.94%     2 S               2.394  0.00    15 H
                                   -9.94%     2 P:y             4.589  0.00    10 C
                                    7.19%     1 S              -6.532  1.00    18 H
                                    5.15%     1 S              -6.532  1.00    16 H
                                    4.70%     1 P:y            -5.239  0.67    10 C
                                    4.54%     2 S               2.394  0.00    13 H
                                    4.41%     1 S              -6.532  1.00    11 H
                                    3.26%     1 S              -6.532  1.00    13 H
                                    2.46%     1 P:x            -5.239  0.67     9 C
                                    2.41%     2 S             -18.450  2.00     5 N
                                   -2.30%     3 S              14.073  0.00     5 N
                                   -2.19%     2 P:y             7.649  0.00     5 N
                                   -2.14%     2 P:z             4.589  0.00    10 C
                                   -2.13%     2 S               2.394  0.00    16 H
                                    1.89%     1 S              -6.532  1.00    14 H
                                   -1.67%     1 P:z            -5.239  0.67    10 C
                                    1.56%     1 P:x            -5.239  0.67     6 C
                                   -1.52%     2 S               2.394  0.00    12 H
                                    1.48%     2 S             -13.620  2.00    10 C
                                   -1.43%     2 P:z             7.649  0.00     5 N
                                    1.30%     2 S               2.394  0.00    14 H
                                   -1.03%     2 P:y             4.589  0.00     8 C



 =======================================================================
 Electrostatic potential at the Nuclei due to electrons and other nuclei
 =======================================================================
  
         Atom                  Potential
         ----                  ---------
     1)   O                  22.37133698
     2)   N                  18.25573340
     3)   C                  14.71049964
     4)   C                  14.68203283
     5)   C                  14.78074001
     6)   O                  22.39340112
     7)   C                  14.67264695
     8)   O                  22.42413744
     9)   N                  18.37730904
    10)   C                  14.74340142
    11)   H                   0.96352121
    12)   H                   1.09207772
    13)   H                   1.10390264
    14)   H                   1.09184580
    15)   H                   1.00859834
    16)   H                   1.09290357
    17)   H                   1.10107176
    18)   H                   1.10048974
 Mulliken charges used for AMS results%charges...


    =====================
     CALCULATION RESULTS
    =====================

Energy (hartree)            -3.85295183


--------------
Atomic charges
--------------
  Index   Atom    Charge
      1      O   -0.4660
      2      N    0.4173
      3      C    0.0104
      4      C    0.4439
      5      C    0.6184
      6      O   -0.5327
      7      C    0.5838
      8      O   -0.5916
      9      N   -0.1269
     10      C    0.7839
     11      H   -0.0339
     12      H   -0.1652
     13      H   -0.2147
     14      H   -0.1374
     15      H   -0.0020
     16      H   -0.2310
     17      H   -0.1777
     18      H   -0.1788


Dipole moment vector    (Debye):    -0.85343095   -1.09351845   -0.49127690
              magnitude (Debye):     1.47155699


-----------------------
Molecular orbitals info
-----------------------
n orbitals:              348
n spin:                    1

Note: only printing virtual orbitals with
      energy smaller than HOMO + 100. eV

HOMO (eV):              -6.2175
LUMO (eV):              -4.2758
HOMO-LUMO gap (eV):      1.9417

   Index   Energy (eV)    Occupation
     217       93.6629         0.000       
     216       93.0449         0.000       
     215       92.3058         0.000       
     214       91.6019         0.000       
     213       90.9484         0.000       
     212       90.6066         0.000       
     211       90.1327         0.000       
     210       89.6780         0.000       
     209       89.3541         0.000       
     208       87.9114         0.000       
     207       87.0930         0.000       
     206       85.9546         0.000       
     205       84.4353         0.000       
     204       83.8862         0.000       
     203       82.7311         0.000       
     202       82.0973         0.000       
     201       81.5845         0.000       
     200       81.2960         0.000       
     199       80.9339         0.000       
     198       80.3298         0.000       
     197       79.4072         0.000       
     196       78.5956         0.000       
     195       78.1945         0.000       
     194       77.9723         0.000       
     193       77.3330         0.000       
     192       77.2120         0.000       
     191       76.5952         0.000       
     190       76.4121         0.000       
     189       76.0698         0.000       
     188       75.6891         0.000       
     187       75.6302         0.000       
     186       74.4616         0.000       
     185       73.8774         0.000       
     184       73.0993         0.000       
     183       71.6687         0.000       
     182       69.5976         0.000       
     181       68.9647         0.000       
     180       68.1683         0.000       
     179       67.1205         0.000       
     178       66.8670         0.000       
     177       65.7621         0.000       
     176       65.0052         0.000       
     175       63.9432         0.000       
     174       63.6853         0.000       
     173       63.4627         0.000       
     172       62.1738         0.000       
     171       62.0394         0.000       
     170       61.1324         0.000       
     169       60.6081         0.000       
     168       59.6034         0.000       
     167       57.6080         0.000       
     166       57.1991         0.000       
     165       56.8763         0.000       
     164       55.6447         0.000       
     163       55.3657         0.000       
     162       54.7500         0.000       
     161       54.6221         0.000       
     160       54.3545         0.000       
     159       53.2504         0.000       
     158       52.6506         0.000       
     157       52.2462         0.000       
     156       51.2193         0.000       
     155       51.0119         0.000       
     154       50.4127         0.000       
     153       49.7731         0.000       
     152       48.5498         0.000       
     151       48.0749         0.000       
     150       47.5147         0.000       
     149       47.1977         0.000       
     148       46.5409         0.000       
     147       46.0562         0.000       
     146       45.2481         0.000       
     145       45.1919         0.000       
     144       44.7828         0.000       
     143       43.6382         0.000       
     142       43.0380         0.000       
     141       42.8860         0.000       
     140       41.5999         0.000       
     139       41.2855         0.000       
     138       40.3451         0.000       
     137       39.8090         0.000       
     136       39.4990         0.000       
     135       39.0848         0.000       
     134       37.8862         0.000       
     133       37.3016         0.000       
     132       37.1186         0.000       
     131       36.8951         0.000       
     130       36.5486         0.000       
     129       35.8758         0.000       
     128       34.8494         0.000       
     127       34.6627         0.000       
     126       34.5802         0.000       
     125       33.8639         0.000       
     124       33.5420         0.000       
     123       32.7340         0.000       
     122       32.5309         0.000       
     121       31.8448         0.000       
     120       31.2694         0.000       
     119       30.7093         0.000       
     118       30.3775         0.000       
     117       29.8781         0.000       
     116       29.1867         0.000       
     115       28.8455         0.000       
     114       28.4065         0.000       
     113       28.0649         0.000       
     112       27.8040         0.000       
     111       27.4506         0.000       
     110       26.9211         0.000       
     109       26.6765         0.000       
     108       26.0180         0.000       
     107       25.5595         0.000       
     106       25.0659         0.000       
     105       24.6051         0.000       
     104       24.2340         0.000       
     103       23.5743         0.000       
     102       23.2090         0.000       
     101       22.7167         0.000       
     100       21.6555         0.000       
      99       21.5999         0.000       
      98       21.1419         0.000       
      97       20.0872         0.000       
      96       19.0956         0.000       
      95       18.5635         0.000       
      94       18.3930         0.000       
      93       17.5955         0.000       
      92       17.4059         0.000       
      91       16.8351         0.000       
      90       15.5565         0.000       
      89       15.4539         0.000       
      88       14.7802         0.000       
      87       14.2897         0.000       
      86       13.8280         0.000       
      85       13.4870         0.000       
      84       13.0456         0.000       
      83       12.8459         0.000       
      82       12.6282         0.000       
      81       12.2742         0.000       
      80       11.8717         0.000       
      79       11.2769         0.000       
      78       11.0763         0.000       
      77       10.6567         0.000       
      76       10.3428         0.000       
      75       10.2363         0.000       
      74       10.1385         0.000       
      73        9.3718         0.000       
      72        9.1108         0.000       
      71        8.8630         0.000       
      70        8.7492         0.000       
      69        8.6303         0.000       
      68        8.2249         0.000       
      67        7.7616         0.000       
      66        7.2048         0.000       
      65        6.9101         0.000       
      64        6.7711         0.000       
      63        6.5379         0.000       
      62        5.9723         0.000       
      61        5.6114         0.000       
      60        5.4459         0.000       
      59        4.7827         0.000       
      58        4.7272         0.000       
      57        4.6699         0.000       
      56        4.4864         0.000       
      55        4.2538         0.000       
      54        3.8760         0.000       
      53        3.6935         0.000       
      52        3.3679         0.000       
      51        2.8243         0.000       
      50        2.2657         0.000       
      49        1.9721         0.000       
      48        1.6244         0.000       
      47        1.3130         0.000       
      46        1.2742         0.000       
      45        0.8419         0.000       
      44        0.3991         0.000       
      43        0.2830         0.000       
      42       -0.1184         0.000       
      41       -0.3789         0.000       
      40       -1.5956         0.000       
      39       -4.2758         0.000 < LUMO
      38       -6.2175         2.000 < HOMO
      37       -6.2421         2.000       
      36       -6.4352         2.000       
      35       -6.6647         2.000       
      34       -7.1759         2.000       
      33       -9.1332         2.000       
      32       -9.5315         2.000       
      31       -9.6909         2.000       
      30       -9.8314         2.000       
      29      -10.2532         2.000       
      28      -10.7295         2.000       
      27      -10.9310         2.000       
      26      -11.1952         2.000       
      25      -11.3900         2.000       
      24      -11.9699         2.000       
      23      -12.1893         2.000       
      22      -12.7693         2.000       
      21      -13.7602         2.000       
      20      -14.8256         2.000       
      19      -15.1195         2.000       
      18      -16.8692         2.000       
      17      -18.3079         2.000       
      16      -18.9732         2.000       
      15      -21.9722         2.000       
      14      -23.2646         2.000       
      13      -26.1000         2.000       
      12      -26.5352         2.000       
      11      -28.5489         2.000       
      10     -270.1682         2.000       
       9     -271.1100         2.000       
       8     -272.1960         2.000       
       7     -272.9949         2.000       
       6     -273.1433         2.000       
       5     -382.5398         2.000       
       4     -385.9558         2.000       
       3     -510.8292         2.000       
       2     -511.6910         2.000       
       1     -512.3893         2.000       

AMS application finished. Exiting.
NORMAL TERMINATION
     Total cpu time:      80.43
  Total system time:       0.73
 Total elapsed time:      81.67
NORMAL TERMINATION
