
 *******************************************************************************
 *                                                                             *
 *  --------------------------------                                           *
 *   Amsterdam Modeling Suite (AMS)              2026.103                      *
 *  --------------------------------                                           *
 *                                               r260501 2026-05-01 873454b5   *
 *                                                                             *
 *                                                                             *
 *                              =================                              *
 *                              |               |                              *
 *                              |     A M S     |                              *
 *                              |               |                              *
 *                              =================                              *
 *                                                                             *
 *                                                                             *
 *   Online information and documentation:  https://www.scm.com/support/       *
 *   E-mail:  support@scm.com   info@scm.com                                   *
 *                                                                             *
 *   Scientific publications using AMS results must be properly referenced     *
 *   See the User Manuals (or the web site) for recommended citations          *
 *   The terms and conditions of the End User License Agreement apply to       *
 *   the use of AMS, https://www.scm.com/license-terms/                        *
 *                                                                             *
 **********************  x86_64_linux_intel / intelmpi  ************************
 
 Licensed to: Jong-June Jeon / University of Seoul 2026-05-13 16:10:32
 SCM User ID: u30731
  
 AMS 2026.103  RunTime: May30-2026 08:10:13  ShM Nodes: 1  Procs: 1

 AMS jobname: c4_fragA_opt
 AMS jobid  : 1340918378

 Start   directory: /gpfs/home1/yeseo1ee/projects/eda-asm-prediction/adf_outputs/batch_000/dipolar_000804/
 Results directory: /gpfs/home1/yeseo1ee/projects/eda-asm-prediction/adf_outputs/batch_000/dipolar_000804/c4_fragA_opt.results/
 Scratch directory: /tmp/amstmp_c4_fragA_opt_kid0.1340918378/

 RNG seed: 1094699985 1603721316 729389334 999127138 515768745 947734660 -1551600331 179945599



                      ************************************************************************
                      *  ADF 2026.103  RunTime: May30-2026 08:10:13  ShM Nodes: 1  Procs: 1  *
                      ************************************************************************
  

       ***************************
       *  GEOMETRY OPTIMIZATION  *
       ***************************

Optimization Method                    Quasi Newton
Optimization Coordinates               Delocalized Coordinates
Optimize lattice                       F
 
 ------------------------------------------------------
 Convergence criteria (Hartree,Angstrom)
 ------------------------------------------------------
 Maximum gradient               0.000100000000
 Maximum rms gradient           0.000066666667
 Maximum step allowed           0.010000000000
 Maximum rms step allowed       0.006666666667
 Maximum energy change allowe   0.000180000000
 Maximum stress energy allowe   0.000500000000
 
Initial model Hessian                  Automatic Hessian
 
------------------------------------
Quasi-Newton Optimizer Parameters
------------------------------------
Hessian Update Method                  BFGS
Maximum number of steps                  200
First GDIIS cycle                          0
Maximum GDIIS vectors                      0
Trust radius (bohr)                        0.200000
Trust radius varies                        T
Constraints converged at all steps         T
Use projector                              T
 
 Rigid motions settings for: old optimizer
 Atomic rotations (x,y,z):     T T T
 Atomic translations (x,y,z):  T T T
 Tolerance:                  1.000000000000000E-006

--------
Geometry
--------
Formula: C5H8N2O3
Atoms
  Index Symbol   x (angstrom)   y (angstrom)   z (angstrom)
      1      O    -2.11521000    -1.36136000     1.36467000
      2      N    -2.22541000    -0.08722000     1.52616000
      3      C    -2.20082000     0.72717000     0.45362000
      4      C    -1.80403000     2.13331000     0.81606000
      5      C    -1.66947000     3.18377000    -0.24064000
      6      O    -1.52550000     2.36573000     1.98684000
      7      C    -2.97453000     0.40215000    -0.79930000
      8      O    -3.05497000     1.21351000    -1.72951000
      9      N    -3.57200000    -0.80034000    -0.83729000
     10      C    -4.30379000    -1.23309000    -2.01045000
     11      H    -1.79192000     0.31772000     2.36774000
     12      H    -1.05709000     2.81713000    -1.07668000
     13      H    -1.21707000     4.07634000     0.21048000
     14      H    -2.65706000     3.42523000    -0.65961000
     15      H    -3.34031000    -1.46106000    -0.09674000
     16      H    -4.74767000    -2.21529000    -1.80729000
     17      H    -5.10839000    -0.52419000    -2.25758000
     18      H    -3.64536000    -1.31628000    -2.89128000

Total System Charge              0.00000


----------------
ADF Engine Input
----------------
 
   Basis
     Type TZ2P
     Core None
   End
   XC
     GGA BLYP
     Dispersion GRIMME3 BJDAMP
   End
   Symmetry NOSYM
   NumericalQuality Normal
   Unrestricted No
   SCF
     Iterations 200
     Converge 1.0e-6
   End
   Save TAPE21
 

 Title: *** (NO TITLE) ***

 Using automatic Hessian for delocalized coordinates.
 *** GO1_GOStep1 ***

 Energy gradients wrt nuclear displacements
 ==========================================

     Atom      Cartesian (a.u./angstrom)
                 X         Y         Z
 ----------------------------------------
     1 O     0.042338  0.024355 -0.045666
     2 N    -0.096153  0.022877  0.086423
     3 C     0.062371 -0.041134 -0.028442
     4 C     0.002109  0.008518  0.015777
     5 C     0.000133 -0.012764  0.008834
     6 O    -0.008487 -0.005447 -0.033014
     7 C    -0.030288 -0.003670  0.009056
     8 O     0.001013 -0.014090  0.005372
     9 N     0.005194  0.023598 -0.009142
    10 C     0.014527  0.006671  0.014688
    11 H     0.013388 -0.012068 -0.022221
    12 H     0.004435 -0.001397 -0.000987
    13 H     0.001505  0.004385  0.001153
    14 H    -0.004884  0.001573  0.001526
    15 H    -0.002717  0.001907  0.002181
    16 H    -0.001832 -0.003375 -0.000392
    17 H    -0.004569  0.002368 -0.000872
    18 H     0.001917 -0.002307 -0.004274
 ----------------------------------------
 
----------------------------------------------------------------------
Geometry Convergence after Step   1       (Hartree/Angstrom,Angstrom)
----------------------------------------------------------------------
current energy                               -3.85295183 Hartree
energy change                      -3.85295183     0.00018000    F
constrained gradient max            0.09620702     0.00010000    F
constrained gradient rms            0.02480151     0.00006667    F
gradient max                        0.09620702
gradient rms                        0.02480151
cart. step max                      0.14457659     0.01000000    F
cart. step rms                      0.02649266     0.00666667    F
 

--------
Geometry
--------
Formula: C5H8N2O3
Atoms
  Index Symbol   x (angstrom)   y (angstrom)   z (angstrom)
      1      O    -2.17449798    -1.37885209     1.50924659
      2      N    -2.18772060    -0.08491180     1.52351276
      3      C    -2.19158743     0.72359805     0.44379977
      4      C    -1.79038539     2.12936957     0.81461175
      5      C    -1.67243570     3.19050592    -0.24029579
      6      O    -1.49334624     2.35356549     1.99435540
      7      C    -2.97192298     0.39981308    -0.80862772
      8      O    -3.06603361     1.23066475    -1.72614769
      9      N    -3.56485326    -0.81666148    -0.85850587
     10      C    -4.31280564    -1.23887198    -2.03130403
     11      H    -1.78039771     0.35959739     2.36592773
     12      H    -1.07410904     2.83154659    -1.08795378
     13      H    -1.21486802     4.07845249     0.21046408
     14      H    -2.66349704     3.43386987    -0.64570280
     15      H    -3.31717218    -1.48752994    -0.13224108
     16      H    -4.74419979    -2.22680986    -1.83661333
     17      H    -5.12477886    -0.53360432    -2.25510876
     18      H    -3.66598851    -1.30051171    -2.92021720

Total System Charge              0.00000

 *** GO1_GOStep2 ***

 Energy gradients wrt nuclear displacements
 ==========================================

     Atom      Cartesian (a.u./angstrom)
                 X         Y         Z
 ----------------------------------------
     1 O     0.036837 -0.015200 -0.011953
     2 N    -0.074084  0.034740  0.050167
     3 C     0.053840 -0.011923 -0.028988
     4 C    -0.006939  0.003157 -0.006136
     5 C     0.000498 -0.008550  0.002899
     6 O    -0.000857 -0.002393 -0.001598
     7 C    -0.023751 -0.004848  0.013307
     8 O     0.002357 -0.000625 -0.003631
     9 N    -0.004297  0.009492 -0.010145
    10 C     0.009074  0.004971  0.010577
    11 H     0.010875 -0.011392 -0.009176
    12 H     0.003053 -0.000202 -0.000593
    13 H     0.000916  0.002747  0.000313
    14 H    -0.002858  0.001354  0.001135
    15 H    -0.001145  0.001573 -0.001367
    16 H    -0.001328 -0.002164 -0.000843
    17 H    -0.003281  0.000878 -0.001267
    18 H     0.001090 -0.001614 -0.002699
 ----------------------------------------

 dE(predicted):    -0.12435E-01, dE(actual):    -0.10434E-01, Trust radius:    0.400000, all in a.u.
 
----------------------------------------------------------------------
Geometry Convergence after Step   2       (Hartree/Angstrom,Angstrom)
----------------------------------------------------------------------
current energy                               -3.86338633 Hartree
energy change                      -0.01043449     0.00018000    F
constrained gradient max            0.07411713     0.00010000    F
constrained gradient rms            0.01754551     0.00006667    F
gradient max                        0.07411713
gradient rms                        0.01754551
cart. step max                      0.21312390     0.01000000    F
cart. step rms                      0.04612712     0.00666667    F
 

--------
Geometry
--------
Formula: C5H8N2O3
Atoms
  Index Symbol   x (angstrom)   y (angstrom)   z (angstrom)
      1      O    -2.38762189    -1.36514663     1.45060322
      2      N    -2.19335153    -0.09505892     1.45090616
      3      C    -2.20864953     0.75190493     0.41466088
      4      C    -1.76560320     2.14022170     0.81617931
      5      C    -1.64617580     3.22660016    -0.21692237
      6      O    -1.44441550     2.33522568     1.99469615
      7      C    -2.98424365     0.42568870    -0.83505195
      8      O    -3.12411811     1.25458669    -1.74635294
      9      N    -3.53151435    -0.81864369    -0.85697075
     10      C    -4.29906056    -1.28503750    -2.00525208
     11      H    -1.80934761     0.32354267     2.32204980
     12      H    -1.07522059     2.87514635    -1.08488044
     13      H    -1.16146160     4.09166184     0.24617696
     14      H    -2.63723617     3.49888459    -0.59974865
     15      H    -3.23993930    -1.46991855    -0.12725779
     16      H    -4.68623356    -2.28424147    -1.78384377
     17      H    -5.13987104    -0.61108848    -2.20949818
     18      H    -3.67653598    -1.33109808    -2.91029356

Total System Charge              0.00000

 *** GO1_GOStep3 ***

 Energy gradients wrt nuclear displacements
 ==========================================

     Atom      Cartesian (a.u./angstrom)
                 X         Y         Z
 ----------------------------------------
     1 O     0.011380 -0.008071 -0.015698
     2 N    -0.039319  0.013155  0.019789
     3 C     0.038645 -0.004751 -0.020964
     4 C    -0.009741  0.002445 -0.004288
     5 C     0.001338 -0.002795  0.002258
     6 O     0.001987  0.002297  0.001014
     7 C    -0.014900  0.001032  0.010186
     8 O     0.001149 -0.002918 -0.002480
     9 N     0.000471  0.002845  0.010277
    10 C     0.004664  0.000379  0.005424
    11 H     0.003075 -0.004923 -0.002066
    12 H     0.001490  0.000492  0.000256
    13 H     0.000785  0.001247  0.000265
    14 H    -0.000288  0.001230  0.001083
    15 H     0.000942  0.000263 -0.003518
    16 H    -0.000835 -0.000986 -0.000585
    17 H    -0.001351 -0.000007 -0.000107
    18 H     0.000508 -0.000934 -0.000847
 ----------------------------------------

 dE(predicted):    -0.10378E-01, dE(actual):    -0.73885E-02, Trust radius:    0.400000, all in a.u.
 
----------------------------------------------------------------------
Geometry Convergence after Step   3       (Hartree/Angstrom,Angstrom)
----------------------------------------------------------------------
current energy                               -3.87077486 Hartree
energy change                      -0.00738853     0.00018000    F
constrained gradient max            0.03937135     0.00010000    F
constrained gradient rms            0.00983565     0.00006667    F
gradient max                        0.03937135
gradient rms                        0.00983565
cart. step max                      0.18981306     0.01000000    F
cart. step rms                      0.05346833     0.00666667    F
 

--------
Geometry
--------
Formula: C5H8N2O3
Atoms
  Index Symbol   x (angstrom)   y (angstrom)   z (angstrom)
      1      O    -2.42285457    -1.31509238     1.64041629
      2      N    -2.12478915    -0.08610189     1.50783810
      3      C    -2.24587969     0.73414637     0.47106909
      4      C    -1.74733982     2.11566518     0.82977173
      5      C    -1.68754432     3.17583796    -0.23938699
      6      O    -1.37942802     2.33359561     1.98625666
      7      C    -2.99197902     0.41611529    -0.80037226
      8      O    -3.13092959     1.27435094    -1.68078448
      9      N    -3.53671256    -0.83150281    -0.87847000
     10      C    -4.28192925    -1.25026605    -2.06537226
     11      H    -1.70178076     0.39357320     2.33246467
     12      H    -1.17372150     2.79559985    -1.12949353
     13      H    -1.17735045     4.05126396     0.16942153
     14      H    -2.69831433     3.43448269    -0.57470637
     15      H    -3.28259870    -1.50219434    -0.14857205
     16      H    -4.68637949    -2.24901645    -1.88309722
     17      H    -5.10421989    -0.55514896    -2.26446179
     18      H    -3.63684887    -1.27207816    -2.95332110

Total System Charge              0.00000

 *** GO1_GOStep4 ***

 Energy gradients wrt nuclear displacements
 ==========================================

     Atom      Cartesian (a.u./angstrom)
                 X         Y         Z
 ----------------------------------------
     1 O     0.007368  0.010052  0.006129
     2 N    -0.006427  0.003552 -0.000888
     3 C     0.014275 -0.008950 -0.002845
     4 C    -0.000010 -0.002455  0.012637
     5 C    -0.003060 -0.003005 -0.002176
     6 O    -0.002828 -0.000537 -0.005892
     7 C    -0.005187  0.003154 -0.005515
     8 O     0.002287  0.000758  0.005320
     9 N    -0.008555  0.003317 -0.003998
    10 C     0.000509  0.001241 -0.000461
    11 H    -0.001934 -0.002284 -0.001167
    12 H     0.000327 -0.000768 -0.000195
    13 H    -0.000128 -0.000877 -0.000512
    14 H    -0.000144  0.000109 -0.000336
    15 H     0.003628 -0.002889 -0.000014
    16 H    -0.000008  0.000384  0.000173
    17 H     0.000209 -0.000769 -0.000360
    18 H    -0.000322 -0.000033  0.000099
 ----------------------------------------

 dE(predicted):    -0.55509E-02, dE(actual):    -0.36760E-02, Trust radius:    0.400000, all in a.u.
 
----------------------------------------------------------------------
Geometry Convergence after Step   4       (Hartree/Angstrom,Angstrom)
----------------------------------------------------------------------
current energy                               -3.87445083 Hartree
energy change                      -0.00367597     0.00018000    F
constrained gradient max            0.01424950     0.00010000    F
constrained gradient rms            0.00432404     0.00006667    F
gradient max                        0.01424950
gradient rms                        0.00432404
cart. step max                      0.09648327     0.01000000    F
cart. step rms                      0.04254507     0.00666667    F
 

--------
Geometry
--------
Formula: C5H8N2O3
Atoms
  Index Symbol   x (angstrom)   y (angstrom)   z (angstrom)
      1      O    -2.43672396    -1.32890285     1.58111366
      2      N    -2.13229251    -0.09360244     1.47335482
      3      C    -2.32298575     0.77135108     0.48057527
      4      C    -1.74132287     2.12705194     0.82558599
      5      C    -1.67641031     3.21506321    -0.21673404
      6      O    -1.30672652     2.29975507     1.97038857
      7      C    -3.04203981     0.43381084    -0.80060242
      8      O    -3.15877019     1.26466896    -1.71296817
      9      N    -3.56287432    -0.82566169    -0.86607908
     10      C    -4.25707410    -1.29235430    -2.06681588
     11      H    -1.66247489     0.35798607     2.29103222
     12      H    -1.22191447     2.84003418    -1.14026551
     13      H    -1.10941260     4.05447692     0.19320106
     14      H    -2.68781368     3.52863784    -0.49849785
     15      H    -3.37908197    -1.45287841    -0.07999676
     16      H    -4.67933785    -2.27865563    -1.85896509
     17      H    -5.06154585    -0.59888979    -2.33345619
     18      H    -3.57179834    -1.35866099    -2.92167061

Total System Charge              0.00000

 *** GO1_GOStep5 ***

 Energy gradients wrt nuclear displacements
 ==========================================

     Atom      Cartesian (a.u./angstrom)
                 X         Y         Z
 ----------------------------------------
     1 O     0.004523  0.001622  0.003634
     2 N    -0.001057 -0.001806 -0.004739
     3 C     0.003390 -0.000989  0.002361
     4 C     0.000089  0.000149 -0.000084
     5 C    -0.000605  0.002529 -0.000216
     6 O    -0.000555 -0.000079  0.001927
     7 C    -0.001666  0.001678 -0.001002
     8 O    -0.001542 -0.001159 -0.000909
     9 N    -0.003268 -0.000966 -0.000988
    10 C     0.000982 -0.001030 -0.002141
    11 H    -0.001700  0.000294  0.001507
    12 H     0.000113  0.000113 -0.000005
    13 H     0.000553 -0.000432 -0.000608
    14 H     0.001589  0.000080  0.000180
    15 H    -0.000805  0.000167  0.000628
    16 H    -0.000191  0.000402  0.000264
    17 H     0.000525 -0.000522  0.000432
    18 H    -0.000377 -0.000051 -0.000242
 ----------------------------------------

 dE(predicted):    -0.13327E-02, dE(actual):    -0.13581E-02, Trust radius:    0.800000, all in a.u.
 
----------------------------------------------------------------------
Geometry Convergence after Step   5       (Hartree/Angstrom,Angstrom)
----------------------------------------------------------------------
current energy                               -3.87580896 Hartree
energy change                      -0.00135813     0.00018000    F
constrained gradient max            0.00474426     0.00010000    F
constrained gradient rms            0.00157067     0.00006667    F
gradient max                        0.00474426
gradient rms                        0.00157067
cart. step max                      0.13190995     0.01000000    F
cart. step rms                      0.02898024     0.00666667    F
 

--------
Geometry
--------
Formula: C5H8N2O3
Atoms
  Index Symbol   x (angstrom)   y (angstrom)   z (angstrom)
      1      O    -2.56863390    -1.31043875     1.59134849
      2      N    -2.17406207    -0.09503825     1.49035412
      3      C    -2.33440422     0.77881665     0.49586222
      4      C    -1.71252114     2.12169671     0.81445942
      5      C    -1.69723737     3.21371747    -0.22368110
      6      O    -1.23389769     2.28979091     1.94270153
      7      C    -3.02126076     0.43680670    -0.79802064
      8      O    -3.11208959     1.26337066    -1.71862025
      9      N    -3.52812718    -0.82537302    -0.86984344
     10      C    -4.24217138    -1.28464911    -2.05992154
     11      H    -1.63433983     0.31189264     2.28742664
     12      H    -1.27745359     2.84834385    -1.16746789
     13      H    -1.12506326     4.05868991     0.16870254
     14      H    -2.72428928     3.51679583    -0.46134187
     15      H    -3.34478017    -1.45179340    -0.08400628
     16      H    -4.65742397    -2.27468265    -1.85327059
     17      H    -5.05319284    -0.59115374    -2.30967307
     18      H    -3.56965173    -1.34356241    -2.92580829

Total System Charge              0.00000

 *** GO1_GOStep6 ***

 Energy gradients wrt nuclear displacements
 ==========================================

     Atom      Cartesian (a.u./angstrom)
                 X         Y         Z
 ----------------------------------------
     1 O    -0.004851 -0.004271 -0.002497
     2 N     0.000662 -0.002179  0.003932
     3 C    -0.002920  0.003000  0.000502
     4 C     0.001009  0.001440 -0.004606
     5 C    -0.001403  0.000562  0.000242
     6 O    -0.001196  0.002279  0.003020
     7 C    -0.000268 -0.000255  0.000419
     8 O     0.001607  0.000661 -0.001410
     9 N     0.001575 -0.000453  0.003590
    10 C    -0.001447  0.000104  0.000747
    11 H     0.003997  0.000126 -0.000518
    12 H     0.000266 -0.000565 -0.000714
    13 H     0.000582  0.000120 -0.000651
    14 H     0.000121  0.000204  0.000261
    15 H     0.002266 -0.000373 -0.002605
    16 H    -0.000255 -0.000148  0.000076
    17 H    -0.000285 -0.000253 -0.000036
    18 H     0.000537  0.000002  0.000247
 ----------------------------------------

 dE(predicted):    -0.50809E-03, dE(actual):    -0.58971E-04, Trust radius:    0.063247, all in a.u.
 
----------------------------------------------------------------------
Geometry Convergence after Step   6       (Hartree/Angstrom,Angstrom)
----------------------------------------------------------------------
current energy                               -3.87586793 Hartree
energy change                      -0.00005897     0.00018000    T
constrained gradient max            0.00491307     0.00010000    F
constrained gradient rms            0.00184079     0.00006667    F
gradient max                        0.00491307
gradient rms                        0.00184079
cart. step max                      0.02604389     0.01000000    F
cart. step rms                      0.01014720     0.00666667    F
 

--------
Geometry
--------
Formula: C5H8N2O3
Atoms
  Index Symbol   x (angstrom)   y (angstrom)   z (angstrom)
      1      O    -2.54700358    -1.30483784     1.59993647
      2      N    -2.16624623    -0.08874293     1.48619599
      3      C    -2.32865814     0.77510255     0.48670382
      4      C    -1.70706484     2.11549165     0.81185977
      5      C    -1.70014998     3.21716221    -0.21589232
      6      O    -1.21566228     2.27134808     1.93522116
      7      C    -3.01883284     0.43168825    -0.80484445
      8      O    -3.10650807     1.25509644    -1.72771312
      9      N    -3.53759124    -0.82623513    -0.87020922
     10      C    -4.24346473    -1.28908408    -2.06394203
     11      H    -1.64697717     0.33521720     2.28748087
     12      H    -1.28653583     2.86252202    -1.16603144
     13      H    -1.12756844     4.05899192     0.18217141
     14      H    -2.72939842     3.52059939    -0.44374666
     15      H    -3.37082406    -1.44627522    -0.07491716
     16      H    -4.67172735    -2.27234480    -1.85224880
     17      H    -5.04347735    -0.58862155    -2.32873998
     18      H    -3.56290945    -1.36384816    -2.92208432

Total System Charge              0.00000

 *** GO1_GOStep7 ***

 Energy gradients wrt nuclear displacements
 ==========================================

     Atom      Cartesian (a.u./angstrom)
                 X         Y         Z
 ----------------------------------------
     1 O    -0.001677 -0.000649 -0.000307
     2 N     0.002269  0.000374  0.000329
     3 C    -0.002282  0.000781  0.001321
     4 C     0.000851  0.000625 -0.000047
     5 C    -0.000480  0.000293 -0.000209
     6 O    -0.001975 -0.000073  0.000050
     7 C     0.000047 -0.000060 -0.000911
     8 O     0.000485 -0.000363 -0.000192
     9 N     0.000333 -0.000021  0.001544
    10 C    -0.000493 -0.000060  0.000000
    11 H     0.001137 -0.000225 -0.000265
    12 H    -0.000040 -0.000107 -0.000455
    13 H     0.000509 -0.000139 -0.000328
    14 H     0.000242  0.000111  0.000286
    15 H     0.001045 -0.000256 -0.001160
    16 H    -0.000095 -0.000066  0.000155
    17 H    -0.000041 -0.000109  0.000093
    18 H     0.000163 -0.000056  0.000096
 ----------------------------------------

 dE(predicted):    -0.26563E-03, dE(actual):    -0.26459E-03, Trust radius:    0.126495, all in a.u.
 
----------------------------------------------------------------------
Geometry Convergence after Step   7       (Hartree/Angstrom,Angstrom)
----------------------------------------------------------------------
current energy                               -3.87613252 Hartree
energy change                      -0.00026459     0.00018000    F
constrained gradient max            0.00228239     0.00010000    F
constrained gradient rms            0.00074894     0.00006667    F
gradient max                        0.00228239
gradient rms                        0.00074894
cart. step max                      0.07026866     0.01000000    F
cart. step rms                      0.02003724     0.00666667    F
 

--------
Geometry
--------
Formula: C5H8N2O3
Atoms
  Index Symbol   x (angstrom)   y (angstrom)   z (angstrom)
      1      O    -2.55836842    -1.30324070     1.60362417
      2      N    -2.17013912    -0.09038743     1.48724969
      3      C    -2.31250044     0.76905179     0.48156548
      4      C    -1.67884295     2.10489599     0.80119689
      5      C    -1.71853664     3.21942510    -0.21127625
      6      O    -1.14539362     2.25144592     1.90704003
      7      C    -3.00758333     0.42995372    -0.80733901
      8      O    -3.07532881     1.24774657    -1.73699120
      9      N    -3.54785136    -0.81924213    -0.86483299
     10      C    -4.23630202    -1.28818771    -2.06609585
     11      H    -1.66585024     0.33774716     2.29571992
     12      H    -1.32592374     2.88451382    -1.17694771
     13      H    -1.15146914     4.06666841     0.18302399
     14      H    -2.75929662     3.50707451    -0.40692262
     15      H    -3.41470169    -1.42714471    -0.05342782
     16      H    -4.68748119    -2.25979667    -1.84851177
     17      H    -5.01637969    -0.57707679    -2.36041330
     18      H    -3.53865099    -1.39021684    -2.90746163

Total System Charge              0.00000

 *** GO1_GOStep8 ***

 Energy gradients wrt nuclear displacements
 ==========================================

     Atom      Cartesian (a.u./angstrom)
                 X         Y         Z
 ----------------------------------------
     1 O    -0.000042 -0.000104 -0.000648
     2 N     0.001838 -0.001460 -0.001253
     3 C    -0.000604  0.000218  0.000349
     4 C     0.000451 -0.000672 -0.000596
     5 C    -0.000246 -0.000502 -0.000473
     6 O    -0.000203  0.001505  0.000435
     7 C    -0.000590  0.000254  0.000005
     8 O     0.000419  0.000691  0.000565
     9 N     0.000284 -0.000229  0.001202
    10 C     0.000719 -0.000281 -0.000294
    11 H    -0.001338  0.000512  0.000355
    12 H    -0.000377 -0.000084 -0.000311
    13 H     0.000286 -0.000061 -0.000261
    14 H    -0.000036  0.000086  0.000383
    15 H    -0.000612  0.000301  0.000267
    16 H     0.000011 -0.000138  0.000159
    17 H     0.000118  0.000098  0.000148
    18 H    -0.000078 -0.000133 -0.000033
 ----------------------------------------
 
----------------------------------------------------------------------
Geometry Convergence after Step   8       (Hartree/Angstrom,Angstrom)
----------------------------------------------------------------------
current energy                               -3.87613277 Hartree
energy change                      -0.00000025     0.00018000    T
constrained gradient max            0.00180217     0.00010000    F
constrained gradient rms            0.00059303     0.00006667    F
gradient max                        0.00180217
gradient rms                        0.00059303
cart. step max                      0.03331352     0.01000000    F
cart. step rms                      0.01244359     0.00666667    F
 

--------
Geometry
--------
Formula: C5H8N2O3
Atoms
  Index Symbol   x (angstrom)   y (angstrom)   z (angstrom)
      1      O    -2.58340747    -1.28672595     1.62201317
      2      N    -2.18092021    -0.08063840     1.48874500
      3      C    -2.30275499     0.76582835     0.46963551
      4      C    -1.66494677     2.09873516     0.79298942
      5      C    -1.72166921     3.22919990    -0.20068135
      6      O    -1.11208010     2.22891030     1.89142795
      7      C    -2.99697258     0.42166122    -0.81881554
      8      O    -3.06176705     1.23302968    -1.75436437
      9      N    -3.54589669    -0.82410332    -0.86950904
     10      C    -4.24016430    -1.29471297    -2.06664757
     11      H    -1.66463210     0.34868867     2.28895998
     12      H    -1.32193264     2.91736202    -1.17081804
     13      H    -1.17054749     4.07936279     0.20953847
     14      H    -2.76688627     3.50274691    -0.39405309
     15      H    -3.41822480    -1.42737209    -0.05343806
     16      H    -4.69583801    -2.26292895    -1.84367331
     17      H    -5.01704831    -0.58101557    -2.36315778
     18      H    -3.54491102    -1.40479774    -2.90895134

Total System Charge              0.00000

 *** GO1_GOStep9 ***

 Energy gradients wrt nuclear displacements
 ==========================================

     Atom      Cartesian (a.u./angstrom)
                 X         Y         Z
 ----------------------------------------
     1 O     0.000661  0.000192  0.000761
     2 N    -0.000367  0.001635 -0.000739
     3 C     0.001174 -0.000225 -0.000551
     4 C    -0.001162 -0.000480  0.000497
     5 C     0.001694 -0.000187 -0.000726
     6 O    -0.000161 -0.000385 -0.000007
     7 C     0.000816 -0.000720  0.000272
     8 O    -0.001169 -0.000651 -0.000222
     9 N    -0.000597  0.000407 -0.000485
    10 C     0.000271 -0.000107 -0.000028
    11 H    -0.000259 -0.000278 -0.000191
    12 H    -0.000717  0.000456  0.000242
    13 H    -0.000035  0.000198  0.000181
    14 H    -0.000149  0.000241  0.000419
    15 H    -0.000096  0.000169  0.000468
    16 H     0.000058 -0.000113  0.000052
    17 H     0.000088  0.000004  0.000000
    18 H    -0.000048 -0.000155  0.000057
 ----------------------------------------

 dE(predicted):    -0.67965E-04, dE(actual):    -0.30281E-04, Trust radius:    0.126495, all in a.u.
 
----------------------------------------------------------------------
Geometry Convergence after Step   9       (Hartree/Angstrom,Angstrom)
----------------------------------------------------------------------
current energy                               -3.87616305 Hartree
energy change                      -0.00003028     0.00018000    T
constrained gradient max            0.00173248     0.00010000    F
constrained gradient rms            0.00056126     0.00006667    F
gradient max                        0.00173248
gradient rms                        0.00056126
cart. step max                      0.01993474     0.01000000    F
cart. step rms                      0.00609394     0.00666667    T
 

--------
Geometry
--------
Formula: C5H8N2O3
Atoms
  Index Symbol   x (angstrom)   y (angstrom)   z (angstrom)
      1      O    -2.58099689    -1.29004182     1.62075386
      2      N    -2.17966677    -0.08302766     1.49209066
      3      C    -2.30405732     0.76582069     0.47485512
      4      C    -1.66843050     2.10053154     0.79566564
      5      C    -1.72237865     3.22464833    -0.20530634
      6      O    -1.11911288     2.23598374     1.89505825
      7      C    -2.99614525     0.42315325    -0.81519469
      8      O    -3.05817366     1.23621331    -1.74946695
      9      N    -3.54111860    -0.82424167    -0.87041401
     10      C    -4.24198725    -1.28949561    -2.06580107
     11      H    -1.66500112     0.34538313     2.29401595
     12      H    -1.30804814     2.90841982    -1.16817473
     13      H    -1.18139961     4.08113673     0.20504478
     14      H    -2.76683612     3.48935184    -0.41398783
     15      H    -3.40849375    -1.43167274    -0.05838205
     16      H    -4.69261974    -2.26076515    -1.84592587
     17      H    -5.02380085    -0.57691563    -2.35186385
     18      H    -3.55233289    -1.39125210    -2.91376687

Total System Charge              0.00000

 *** GO1_GOStep10 ***

 Energy gradients wrt nuclear displacements
 ==========================================

     Atom      Cartesian (a.u./angstrom)
                 X         Y         Z
 ----------------------------------------
     1 O     0.000185  0.000209  0.000321
     2 N     0.000060  0.000409  0.000001
     3 C     0.000797 -0.000203 -0.000432
     4 C    -0.000939  0.000128  0.000468
     5 C     0.001545 -0.000541 -0.000851
     6 O    -0.000139 -0.000095 -0.000167
     7 C    -0.000435  0.000146  0.000431
     8 O    -0.000008 -0.000261 -0.000225
     9 N    -0.000039  0.000060 -0.000362
    10 C    -0.000093 -0.000027  0.000128
    11 H    -0.000149 -0.000057 -0.000020
    12 H    -0.000606  0.000186  0.000046
    13 H    -0.000172  0.000173  0.000058
    14 H    -0.000409  0.000259  0.000370
    15 H     0.000288 -0.000130  0.000090
    16 H     0.000033 -0.000074  0.000071
    17 H     0.000053 -0.000051  0.000027
    18 H     0.000029 -0.000131  0.000047
 ----------------------------------------

 dE(predicted):    -0.23757E-04, dE(actual):    -0.34000E-04, Trust radius:    0.126495, all in a.u.
 
----------------------------------------------------------------------
Geometry Convergence after Step  10       (Hartree/Angstrom,Angstrom)
----------------------------------------------------------------------
current energy                               -3.87619705 Hartree
energy change                      -0.00003400     0.00018000    T
constrained gradient max            0.00159388     0.00010000    F
constrained gradient rms            0.00036919     0.00006667    F
gradient max                        0.00159388
gradient rms                        0.00036919
cart. step max                      0.03016146     0.01000000    F
cart. step rms                      0.00876790     0.00666667    F
 

--------
Geometry
--------
Formula: C5H8N2O3
Atoms
  Index Symbol   x (angstrom)   y (angstrom)   z (angstrom)
      1      O    -2.57749797    -1.29424170     1.61685643
      2      N    -2.17548442    -0.08680145     1.49215839
      3      C    -2.30052120     0.76451670     0.47673510
      4      C    -1.66654706     2.10061021     0.79591559
      5      C    -1.72594366     3.22216759    -0.20753815
      6      O    -1.12468427     2.24192185     1.89832399
      7      C    -2.98739147     0.42170010    -0.81597730
      8      O    -3.04741198     1.23626118    -1.74911994
      9      N    -3.53914703    -0.82286757    -0.86993426
     10      C    -4.24582218    -1.28438884    -2.06333125
     11      H    -1.65930361     0.33923200     2.29464685
     12      H    -1.28170358     2.91180175    -1.15936229
     13      H    -1.21156108     4.09075132     0.21115324
     14      H    -2.77038618     3.46285004    -0.44233701
     15      H    -3.41210787    -1.42948775    -0.05660265
     16      H    -4.69958647    -2.25397180    -1.84253102
     17      H    -5.02605327    -0.56876126    -2.34614814
     18      H    -3.55944670    -1.38806237    -2.91370759

Total System Charge              0.00000

 *** GO1_GOStep11 ***

 Energy gradients wrt nuclear displacements
 ==========================================

     Atom      Cartesian (a.u./angstrom)
                 X         Y         Z
 ----------------------------------------
     1 O    -0.000066 -0.000166 -0.000237
     2 N    -0.000419 -0.000545  0.000495
     3 C    -0.000708  0.000515  0.000141
     4 C     0.001466 -0.000125 -0.001068
     5 C     0.000669 -0.000532 -0.000576
     6 O    -0.000722  0.000625  0.000577
     7 C     0.001587 -0.000461 -0.000619
     8 O    -0.000473  0.000713  0.000348
     9 N    -0.000135 -0.000149  0.000386
    10 C    -0.000145 -0.000035  0.000183
    11 H     0.000376  0.000117  0.000022
    12 H    -0.000484 -0.000195  0.000094
    13 H    -0.000388  0.000159  0.000004
    14 H    -0.000657  0.000387  0.000073
    15 H    -0.000046 -0.000039 -0.000010
    16 H    -0.000014 -0.000033  0.000107
    17 H     0.000066 -0.000139  0.000067
    18 H     0.000093 -0.000097  0.000011
 ----------------------------------------

 dE(predicted):    -0.17833E-04, dE(actual):    -0.91301E-05, Trust radius:    0.126495, all in a.u.
 
----------------------------------------------------------------------
Geometry Convergence after Step  11       (Hartree/Angstrom,Angstrom)
----------------------------------------------------------------------
current energy                               -3.87620618 Hartree
energy change                      -0.00000913     0.00018000    T
constrained gradient max            0.00158706     0.00010000    F
constrained gradient rms            0.00048190     0.00006667    F
gradient max                        0.00158706
gradient rms                        0.00048190
cart. step max                      0.01931830     0.01000000    F
cart. step rms                      0.00636801     0.00666667    T
 

--------
Geometry
--------
Formula: C5H8N2O3
Atoms
  Index Symbol   x (angstrom)   y (angstrom)   z (angstrom)
      1      O    -2.58370110    -1.29165734     1.61992321
      2      N    -2.17627125    -0.08632112     1.49284809
      3      C    -2.30334821     0.76553849     0.47829921
      4      C    -1.66282093     2.09925514     0.79462123
      5      C    -1.72899029     3.22267810    -0.20622113
      6      O    -1.10551737     2.23498731     1.88996295
      7      C    -2.99349718     0.42435312    -0.81307038
      8      O    -3.04222352     1.23461767    -1.75053235
      9      N    -3.54358263    -0.82088891    -0.86816047
     10      C    -4.24562506    -1.28415457    -2.06360753
     11      H    -1.65330026     0.33764597     2.29217681
     12      H    -1.26626023     2.91993686    -1.15213141
     13      H    -1.23087937     4.09727408     0.21923449
     14      H    -2.77295574     3.44763955    -0.45629558
     15      H    -3.42072646    -1.42595434    -0.05306852
     16      H    -4.69499374    -2.25623848    -1.84493830
     17      H    -5.02892051    -0.57213741    -2.34723408
     18      H    -3.55698614    -1.38334411    -2.91260623

Total System Charge              0.00000

 *** GO1_GOStep12 ***

 Energy gradients wrt nuclear displacements
 ==========================================

     Atom      Cartesian (a.u./angstrom)
                 X         Y         Z
 ----------------------------------------
     1 O    -0.000198 -0.000048 -0.000242
     2 N    -0.000132 -0.000646  0.000268
     3 C    -0.000022  0.000018 -0.000092
     4 C     0.000633  0.000272 -0.000442
     5 C     0.000746 -0.000444 -0.000511
     6 O    -0.000128  0.000347  0.000259
     7 C    -0.001397  0.000881  0.000438
     8 O     0.000800  0.000128 -0.000028
     9 N     0.000791 -0.000579 -0.000014
    10 C    -0.000197 -0.000030  0.000189
    11 H     0.000315  0.000319  0.000099
    12 H    -0.000374 -0.000140  0.000022
    13 H    -0.000467  0.000042 -0.000064
    14 H    -0.000552  0.000195 -0.000004
    15 H     0.000056 -0.000073 -0.000097
    16 H     0.000030 -0.000013  0.000104
    17 H     0.000062 -0.000105  0.000093
    18 H     0.000033 -0.000123  0.000023
 ----------------------------------------

 dE(predicted):    -0.17716E-04, dE(actual):    -0.16471E-04, Trust radius:    0.126495, all in a.u.
 
----------------------------------------------------------------------
Geometry Convergence after Step  12       (Hartree/Angstrom,Angstrom)
----------------------------------------------------------------------
current energy                               -3.87622265 Hartree
energy change                      -0.00001647     0.00018000    T
constrained gradient max            0.00139461     0.00010000    F
constrained gradient rms            0.00038462     0.00006667    F
gradient max                        0.00139461
gradient rms                        0.00038462
cart. step max                      0.00889718     0.01000000    T
cart. step rms                      0.00245552     0.00666667    T
 

--------
Geometry
--------
Formula: C5H8N2O3
Atoms
  Index Symbol   x (angstrom)   y (angstrom)   z (angstrom)
      1      O    -2.57976733    -1.29221766     1.61879444
      2      N    -2.17591264    -0.08572947     1.49230526
      3      C    -2.30299832     0.76525838     0.47714529
      4      C    -1.66601250     2.10015031     0.79559067
      5      C    -1.72894345     3.22400022    -0.20495957
      6      O    -1.10436181     2.23361698     1.88886531
      7      C    -2.99078867     0.42228970    -0.81508538
      8      O    -3.04234547     1.23281162    -1.75211896
      9      N    -3.54439696    -0.82130440    -0.86817238
     10      C    -4.24770518    -1.28442059    -2.06292557
     11      H    -1.65616623     0.33995724     2.29265010
     12      H    -1.25736306     2.92280108    -1.14724125
     13      H    -1.23497675     4.09935740     0.22387397
     14      H    -2.77113376     3.44599117    -0.46359564
     15      H    -3.41980614    -1.42670633    -0.05352401
     16      H    -4.69547166    -2.25731225    -1.84444072
     17      H    -5.03238041    -0.57325914    -2.34508153
     18      H    -3.56006969    -1.38205425    -2.91288004

Total System Charge              0.00000

 *** GO1_GOStep13 ***

 Energy gradients wrt nuclear displacements
 ==========================================

     Atom      Cartesian (a.u./angstrom)
                 X         Y         Z
 ----------------------------------------
     1 O    -0.000076  0.000121 -0.000199
     2 N     0.000035 -0.000308  0.000318
     3 C     0.000080 -0.000169 -0.000174
     4 C    -0.001256  0.000719  0.000741
     5 C     0.001052 -0.000377 -0.000435
     6 O     0.000521  0.000007 -0.000484
     7 C     0.000170  0.000003 -0.000134
     8 O    -0.000021  0.000016  0.000141
     9 N     0.000312 -0.000072 -0.000093
    10 C    -0.000193  0.000020  0.000218
    11 H     0.000115  0.000248  0.000018
    12 H    -0.000240  0.000047 -0.000064
    13 H    -0.000294  0.000053 -0.000097
    14 H    -0.000335 -0.000008  0.000060
    15 H     0.000048 -0.000040  0.000011
    16 H     0.000026 -0.000046  0.000082
    17 H     0.000016 -0.000101  0.000035
    18 H     0.000040 -0.000115  0.000057
 ----------------------------------------

 dE(predicted):    -0.75973E-05, dE(actual):    -0.82234E-05, Trust radius:    0.126495, all in a.u.
 
----------------------------------------------------------------------
Geometry Convergence after Step  13       (Hartree/Angstrom,Angstrom)
----------------------------------------------------------------------
current energy                               -3.87623088 Hartree
energy change                      -0.00000822     0.00018000    T
constrained gradient max            0.00124256     0.00010000    F
constrained gradient rms            0.00031742     0.00006667    F
gradient max                        0.00124256
gradient rms                        0.00031742
cart. step max                      0.00972137     0.01000000    T
cart. step rms                      0.00271833     0.00666667    T
 

--------
Geometry
--------
Formula: C5H8N2O3
Atoms
  Index Symbol   x (angstrom)   y (angstrom)   z (angstrom)
      1      O    -2.57572272    -1.29234023     1.61819661
      2      N    -2.17401565    -0.08543246     1.49015825
      3      C    -2.30203308     0.76492350     0.47477745
      4      C    -1.66489983     2.09941412     0.79442989
      5      C    -1.72709113     3.22560948    -0.20365422
      6      O    -1.11012206     2.23350949     1.89113563
      7      C    -2.99258830     0.42192511    -0.81610143
      8      O    -3.04375446     1.23104021    -1.75436924
      9      N    -3.54853465    -0.82072177    -0.86698558
     10      C    -4.24966760    -1.28576663    -2.06234474
     11      H    -1.65523187     0.34140681     2.29037417
     12      H    -1.24764168     2.92822855    -1.14337521
     13      H    -1.23759413     4.10128254     0.22979108
     14      H    -2.76791200     3.44448692    -0.46906669
     15      H    -3.42164687    -1.42622265    -0.05269738
     16      H    -4.69473248    -2.26000449    -1.84427144
     17      H    -5.03625428    -0.57689892    -2.34501008
     18      H    -3.56115719    -1.38120959    -2.91178706

Total System Charge              0.00000

 *** GO1_GOStep14 ***

 Energy gradients wrt nuclear displacements
 ==========================================

     Atom      Cartesian (a.u./angstrom)
                 X         Y         Z
 ----------------------------------------
     1 O     0.000325  0.000259  0.000113
     2 N    -0.000092  0.000212 -0.000025
     3 C     0.000060 -0.000170  0.000068
     4 C     0.000505 -0.000112 -0.000004
     5 C    -0.000006  0.000216  0.000137
     6 O    -0.000326  0.000028 -0.000240
     7 C    -0.000213 -0.000007  0.000055
     8 O    -0.000192 -0.000320 -0.000086
     9 N     0.000136  0.000018 -0.000241
    10 C    -0.000066 -0.000034  0.000103
    11 H    -0.000060  0.000073 -0.000009
    12 H    -0.000101  0.000019  0.000019
    13 H    -0.000100  0.000055 -0.000091
    14 H    -0.000025  0.000041 -0.000060
    15 H     0.000085 -0.000012  0.000089
    16 H     0.000048 -0.000070  0.000071
    17 H     0.000025 -0.000071  0.000034
    18 H    -0.000004 -0.000125  0.000067
 ----------------------------------------

 dE(predicted):    -0.53216E-05, dE(actual):    -0.56549E-05, Trust radius:    0.126495, all in a.u.
 
----------------------------------------------------------------------
Geometry Convergence after Step  14       (Hartree/Angstrom,Angstrom)
----------------------------------------------------------------------
current energy                               -3.87623653 Hartree
energy change                      -0.00000565     0.00018000    T
constrained gradient max            0.00052417     0.00010000    F
constrained gradient rms            0.00013767     0.00006667    F
gradient max                        0.00052417
gradient rms                        0.00013767
cart. step max                      0.00397847     0.01000000    T
cart. step rms                      0.00146536     0.00666667    T
 

--------
Geometry
--------
Formula: C5H8N2O3
Atoms
  Index Symbol   x (angstrom)   y (angstrom)   z (angstrom)
      1      O    -2.57692960    -1.29278211     1.61832108
      2      N    -2.17329383    -0.08635074     1.49035658
      3      C    -2.30271997     0.76515428     0.47602042
      4      C    -1.66520438     2.09959855     0.79478799
      5      C    -1.72825337     3.22478960    -0.20440887
      6      O    -1.10811177     2.23368847     1.89044102
      7      C    -2.99349899     0.42292843    -0.81482369
      8      O    -3.04298607     1.23220166    -1.75310909
      9      N    -3.55050004    -0.81928352    -0.86575035
     10      C    -4.24883655    -1.28501284    -2.06247899
     11      H    -1.65125340     0.33870621     2.28943857
     12      H    -1.24678543     2.92716037    -1.14312373
     13      H    -1.24034101     4.10153258     0.22866001
     14      H    -2.76894192     3.44165015    -0.47174061
     15      H    -3.42536706    -1.42442037    -0.05096205
     16      H    -4.69326783    -2.25973499    -1.84525335
     17      H    -5.03571149    -0.57702413    -2.34655908
     18      H    -3.55859728    -1.37957160    -2.91061586

Total System Charge              0.00000

 *** GO1_GOStep15 ***

 Energy gradients wrt nuclear displacements
 ==========================================

     Atom      Cartesian (a.u./angstrom)
                 X         Y         Z
 ----------------------------------------
     1 O     0.000135  0.000051  0.000095
     2 N    -0.000116  0.000081  0.000007
     3 C     0.000110 -0.000091 -0.000007
     4 C     0.000049  0.000137 -0.000080
     5 C    -0.000125  0.000071 -0.000019
     6 O    -0.000036  0.000051  0.000002
     7 C    -0.000119  0.000010 -0.000017
     8 O    -0.000083  0.000017 -0.000010
     9 N     0.000138 -0.000117 -0.000020
    10 C     0.000013 -0.000064  0.000076
    11 H     0.000124  0.000068 -0.000020
    12 H    -0.000056  0.000013 -0.000077
    13 H    -0.000077  0.000022 -0.000115
    14 H    -0.000027 -0.000014 -0.000074
    15 H    -0.000013  0.000023  0.000070
    16 H     0.000043 -0.000073  0.000088
    17 H     0.000038 -0.000066  0.000057
    18 H     0.000001 -0.000121  0.000044
 ----------------------------------------
 
----------------------------------------------------------------------
Geometry Convergence after Step  15       (Hartree/Angstrom,Angstrom)
----------------------------------------------------------------------
current energy                               -3.87623747 Hartree
energy change                      -0.00000094     0.00018000    T
constrained gradient max            0.00016003     0.00010000    F
constrained gradient rms            0.00005273     0.00006667    T
gradient max                        0.00016003
gradient rms                        0.00005273
cart. step max                      0.00254258     0.01000000    T
cart. step rms                      0.00073370     0.00666667    T
 

--------
Geometry
--------
Formula: C5H8N2O3
Atoms
  Index Symbol   x (angstrom)   y (angstrom)   z (angstrom)
      1      O    -2.57747380    -1.29285091     1.61769670
      2      N    -2.17352712    -0.08641023     1.49040049
      3      C    -2.30280142     0.76526932     0.47619156
      4      C    -1.66483542     2.09950705     0.79460286
      5      C    -1.72867159     3.22478655    -0.20443865
      6      O    -1.10662484     2.23337406     1.88969511
      7      C    -2.99257650     0.42266815    -0.81501209
      8      O    -3.04044349     1.23126368    -1.75394531
      9      N    -3.55099122    -0.81890025    -0.86533585
     10      C    -4.24914207    -1.28468493    -2.06214773
     11      H    -1.65235505     0.33860334     2.29004301
     12      H    -1.24629340     2.92772325    -1.14290338
     13      H    -1.24166750     4.10189831     0.22895673
     14      H    -2.76940384     3.44062931    -0.47237262
     15      H    -3.42545704    -1.42422651    -0.05074961
     16      H    -4.69215857    -2.26017628    -1.84545450
     17      H    -5.03716565    -0.57765440    -2.34547570
     18      H    -3.55901148    -1.37758950    -2.91055103

Total System Charge              0.00000

 *** GO1_GOStep16 ***

 Energy gradients wrt nuclear displacements
 ==========================================

     Atom      Cartesian (a.u./angstrom)
                 X         Y         Z
 ----------------------------------------
     1 O     0.000023  0.000039 -0.000042
     2 N     0.000110  0.000016  0.000031
     3 C    -0.000070 -0.000008  0.000017
     4 C     0.000034  0.000131 -0.000059
     5 C    -0.000179  0.000046 -0.000014
     6 O     0.000014  0.000062 -0.000063
     7 C    -0.000041  0.000002 -0.000029
     8 O    -0.000047 -0.000030  0.000043
     9 N     0.000158 -0.000069  0.000057
    10 C    -0.000041 -0.000053  0.000105
    11 H     0.000029  0.000120  0.000008
    12 H    -0.000036  0.000012 -0.000099
    13 H    -0.000052  0.000030 -0.000107
    14 H    -0.000029 -0.000028 -0.000076
    15 H     0.000038 -0.000004  0.000036
    16 H     0.000035 -0.000077  0.000089
    17 H     0.000032 -0.000075  0.000056
    18 H     0.000022 -0.000113  0.000048
 ----------------------------------------
 
----------------------------------------------------------------------
Geometry Convergence after Step  16       (Hartree/Angstrom,Angstrom)
----------------------------------------------------------------------
current energy                               -3.87623846 Hartree
energy change                      -0.00000099     0.00018000    T
constrained gradient max            0.00013190     0.00010000    F
constrained gradient rms            0.00004164     0.00006667    T
gradient max                        0.00013190
gradient rms                        0.00004164
cart. step max                      0.00322253     0.01000000    T
cart. step rms                      0.00089756     0.00666667    T
 

--------
Geometry
--------
Formula: C5H8N2O3
Atoms
  Index Symbol   x (angstrom)   y (angstrom)   z (angstrom)
      1      O    -2.57714474    -1.29299770     1.61777337
      2      N    -2.17331525    -0.08651439     1.49037676
      3      C    -2.30279350     0.76524745     0.47625523
      4      C    -1.66495242     2.09947472     0.79459826
      5      C    -1.72871116     3.22469542    -0.20454661
      6      O    -1.10653591     2.23352262     1.88957670
      7      C    -2.99238706     0.42254514    -0.81498117
      8      O    -3.03835898     1.23031550    -1.75473241
      9      N    -3.55296645    -0.81808361    -0.86446339
     10      C    -4.24949658    -1.28442085    -2.06202631
     11      H    -1.65201617     0.33838643     2.28995257
     12      H    -1.24533719     2.92782460    -1.14257764
     13      H    -1.24229753     4.10201011     0.22916770
     14      H    -2.76931181     3.44004613    -0.47333129
     15      H    -3.42676722    -1.42374363    -0.05020639
     16      H    -4.68992365    -2.26134560    -1.84649808
     17      H    -5.03947855    -0.57936536    -2.34486855
     18      H    -3.55880584    -1.37436697    -2.91026876

Total System Charge              0.00000

 *** GO1_GOStep17 ***

 Energy gradients wrt nuclear displacements
 ==========================================

     Atom      Cartesian (a.u./angstrom)
                 X         Y         Z
 ----------------------------------------
     1 O     0.000037  0.000010  0.000014
     2 N     0.000108  0.000046 -0.000007
     3 C    -0.000036  0.000045 -0.000009
     4 C    -0.000076  0.000055 -0.000040
     5 C    -0.000213  0.000039 -0.000018
     6 O     0.000063  0.000115 -0.000069
     7 C    -0.000006 -0.000013  0.000021
     8 O    -0.000027 -0.000036  0.000020
     9 N     0.000056 -0.000024  0.000043
    10 C    -0.000042 -0.000055  0.000095
    11 H     0.000010  0.000089 -0.000006
    12 H    -0.000014  0.000019 -0.000105
    13 H    -0.000016  0.000045 -0.000100
    14 H    -0.000022 -0.000039 -0.000069
    15 H     0.000092 -0.000026  0.000037
    16 H     0.000030 -0.000076  0.000092
    17 H     0.000032 -0.000086  0.000058
    18 H     0.000026 -0.000108  0.000044
 ----------------------------------------

 dE(predicted):    -0.28922E-06, dE(actual):    -0.10028E-05, Trust radius:    0.126495, all in a.u.
 
----------------------------------------------------------------------
Geometry Convergence after Step  17       (Hartree/Angstrom,Angstrom)
----------------------------------------------------------------------
current energy                               -3.87623947 Hartree
energy change                      -0.00000100     0.00018000    T
constrained gradient max            0.00015410     0.00010000    F
constrained gradient rms            0.00003589     0.00006667    T
gradient max                        0.00015410
gradient rms                        0.00003589
cart. step max                      0.00524206     0.01000000    T
cart. step rms                      0.00144553     0.00666667    T
 

--------
Geometry
--------
Formula: C5H8N2O3
Atoms
  Index Symbol   x (angstrom)   y (angstrom)   z (angstrom)
      1      O    -2.57752525    -1.29279839     1.61812222
      2      N    -2.17317570    -0.08652029     1.49037392
      3      C    -2.30287139     0.76527448     0.47628561
      4      C    -1.66469323     2.09926319     0.79438232
      5      C    -1.72847631     3.22455261    -0.20473612
      6      O    -1.10628578     2.23327898     1.88936762
      7      C    -2.99250519     0.42252048    -0.81487245
      8      O    -3.03589798     1.22909754    -1.75579761
      9      N    -3.55601926    -0.81682511    -0.86310951
     10      C    -4.24962900    -1.28423321    -2.06196936
     11      H    -1.65117566     0.33805222     2.28963017
     12      H    -1.24525287     2.92777715    -1.14284014
     13      H    -1.24207311     4.10184209     0.22907491
     14      H    -2.76915374     3.44003417    -0.47327344
     15      H    -3.42941616    -1.42270475    -0.04906166
     16      H    -4.68553762    -2.26361834    -1.84841160
     17      H    -5.04298275    -0.58263790    -2.34410661
     18      H    -3.55792899    -1.36912492    -2.90985825

Total System Charge              0.00000

 *** GO1_GOStep18 ***

 Energy gradients wrt nuclear displacements
 ==========================================

     Atom      Cartesian (a.u./angstrom)
                 X         Y         Z
 ----------------------------------------
     1 O     0.000043  0.000005  0.000057
     2 N     0.000135  0.000109 -0.000003
     3 C    -0.000009  0.000109 -0.000023
     4 C    -0.000066 -0.000022 -0.000053
     5 C    -0.000181  0.000027 -0.000060
     6 O     0.000011  0.000082 -0.000078
     7 C     0.000019 -0.000028  0.000060
     8 O    -0.000018 -0.000033 -0.000026
     9 N    -0.000086  0.000030  0.000072
    10 C     0.000009 -0.000078  0.000076
    11 H     0.000014  0.000044 -0.000012
    12 H    -0.000019  0.000024 -0.000094
    13 H    -0.000014  0.000059 -0.000089
    14 H    -0.000047 -0.000019 -0.000065
    15 H     0.000135 -0.000047  0.000035
    16 H     0.000026 -0.000069  0.000099
    17 H     0.000024 -0.000091  0.000061
    18 H     0.000022 -0.000103  0.000041
 ----------------------------------------

 dE(predicted):    -0.32684E-06, dE(actual):    -0.14210E-05, Trust radius:    0.126495, all in a.u.
 
----------------------------------------------------------------------
Geometry Convergence after Step  18       (Hartree/Angstrom,Angstrom)
----------------------------------------------------------------------
current energy                               -3.87624089 Hartree
energy change                      -0.00000142     0.00018000    T
constrained gradient max            0.00012480     0.00010000    F
constrained gradient rms            0.00004005     0.00006667    T
gradient max                        0.00012480
gradient rms                        0.00004005
cart. step max                      0.00310423     0.01000000    T
cart. step rms                      0.00076373     0.00666667    T
 

--------
Geometry
--------
Formula: C5H8N2O3
Atoms
  Index Symbol   x (angstrom)   y (angstrom)   z (angstrom)
      1      O    -2.57793919    -1.29259015     1.61854647
      2      N    -2.17342047    -0.08641886     1.49057332
      3      C    -2.30287370     0.76525259     0.47635817
      4      C    -1.66453159     2.09919379     0.79436367
      5      C    -1.72815952     3.22434605    -0.20492736
      6      O    -1.10629443     2.23336490     1.88943004
      7      C    -2.99244363     0.42245043    -0.81483018
      8      O    -3.03511143     1.22868769    -1.75607733
      9      N    -3.55667614    -0.81658634    -0.86282618
     10      C    -4.24962544    -1.28411295    -2.06203366
     11      H    -1.65120511     0.33817748     2.28969213
     12      H    -1.24555936     2.92727689    -1.14320464
     13      H    -1.24154435     4.10161816     0.22863307
     14      H    -2.76894021     3.44015507    -0.47296647
     15      H    -3.43032772    -1.42244418    -0.04872472
     16      H    -4.68296767    -2.26487646    -1.84957906
     17      H    -5.04495464    -0.58424343    -2.34297026
     18      H    -3.55802539    -1.36602069    -2.91025702

Total System Charge              0.00000

 *** GO1_GOStep19 ***

 Energy gradients wrt nuclear displacements
 ==========================================

     Atom      Cartesian (a.u./angstrom)
                 X         Y         Z
 ----------------------------------------
     1 O     0.000075  0.000026  0.000078
     2 N     0.000067  0.000086 -0.000020
     3 C     0.000015  0.000105 -0.000019
     4 C    -0.000071 -0.000043 -0.000064
     5 C    -0.000074  0.000019 -0.000096
     6 O     0.000022  0.000109 -0.000043
     7 C     0.000018 -0.000019  0.000055
     8 O    -0.000009 -0.000038 -0.000027
     9 N    -0.000128  0.000032  0.000067
    10 C     0.000026 -0.000095  0.000063
    11 H     0.000037  0.000047 -0.000022
    12 H    -0.000050  0.000021 -0.000070
    13 H    -0.000056  0.000059 -0.000089
    14 H    -0.000072 -0.000002 -0.000058
    15 H     0.000142 -0.000050  0.000037
    16 H     0.000023 -0.000061  0.000101
    17 H     0.000022 -0.000095  0.000063
    18 H     0.000013 -0.000102  0.000045
 ----------------------------------------
 
----------------------------------------------------------------------
Geometry Convergence after Step  19       (Hartree/Angstrom,Angstrom)
----------------------------------------------------------------------
current energy                               -3.87624152 Hartree
energy change                      -0.00000063     0.00018000    T
constrained gradient max            0.00015198     0.00010000    F
constrained gradient rms            0.00003628     0.00006667    T
gradient max                        0.00015198
gradient rms                        0.00003628
cart. step max                      0.01480395     0.01000000    F
cart. step rms                      0.00363521     0.00666667    T
 

--------
Geometry
--------
Formula: C5H8N2O3
Atoms
  Index Symbol   x (angstrom)   y (angstrom)   z (angstrom)
      1      O    -2.58068926    -1.29137781     1.62050323
      2      N    -2.17502667    -0.08576699     1.49174267
      3      C    -2.30323761     0.76526326     0.47684127
      4      C    -1.66382819     2.09891858     0.79421379
      5      C    -1.72637695     3.22333166    -0.20597050
      6      O    -1.10621270     2.23347875     1.88953322
      7      C    -2.99268047     0.42230936    -0.81441685
      8      O    -3.03392717     1.22775045    -1.75639887
      9      N    -3.55809680    -0.81618445    -0.86210080
     10      C    -4.24927080    -1.28365966    -2.06237470
     11      H    -1.65223869     0.33900824     2.29047790
     12      H    -1.24666107     2.92455991    -1.14499025
     13      H    -1.23821825     4.10031625     0.22623276
     14      H    -2.76747074     3.44099159    -0.47190093
     15      H    -3.43323387    -1.42178259    -0.04760981
     16      H    -4.67026079    -2.27092507    -1.85517891
     17      H    -5.05404645    -0.59178473    -2.33653730
     18      H    -3.55912352    -1.35121673    -2.91286591

Total System Charge              0.00000

 *** GO1_GOStep20 ***

 Energy gradients wrt nuclear displacements
 ==========================================

     Atom      Cartesian (a.u./angstrom)
                 X         Y         Z
 ----------------------------------------
     1 O     0.000143  0.000120  0.000083
     2 N    -0.000083 -0.000027  0.000003
     3 C     0.000055  0.000043  0.000020
     4 C    -0.000021 -0.000007 -0.000035
     5 C     0.000333 -0.000021 -0.000224
     6 O    -0.000016  0.000111 -0.000039
     7 C    -0.000009  0.000007 -0.000018
     8 O     0.000012 -0.000073 -0.000026
     9 N    -0.000216  0.000041  0.000093
    10 C     0.000086 -0.000083  0.000020
    11 H     0.000121  0.000090 -0.000033
    12 H    -0.000169  0.000004  0.000014
    13 H    -0.000213  0.000049 -0.000098
    14 H    -0.000167  0.000058 -0.000044
    15 H     0.000145 -0.000054  0.000027
    16 H    -0.000002 -0.000048  0.000115
    17 H     0.000018 -0.000115  0.000078
    18 H    -0.000015 -0.000094  0.000063
 ----------------------------------------

 dE(predicted):    -0.52985E-06, dE(actual):    -0.28900E-05, Trust radius:    0.126495, all in a.u.
 
----------------------------------------------------------------------
Geometry Convergence after Step  20       (Hartree/Angstrom,Angstrom)
----------------------------------------------------------------------
current energy                               -3.87624441 Hartree
energy change                      -0.00000289     0.00018000    T
constrained gradient max            0.00038272     0.00010000    F
constrained gradient rms            0.00008293     0.00006667    F
gradient max                        0.00038272
gradient rms                        0.00008293
cart. step max                      0.02720964     0.01000000    F
cart. step rms                      0.00694557     0.00666667    F
 

--------
Geometry
--------
Formula: C5H8N2O3
Atoms
  Index Symbol   x (angstrom)   y (angstrom)   z (angstrom)
      1      O    -2.58653524    -1.28893279     1.62390919
      2      N    -2.17887762    -0.08425822     1.49388939
      3      C    -2.30465790     0.76564821     0.47778020
      4      C    -1.66274590     2.09855909     0.79401156
      5      C    -1.72242497     3.22157104    -0.20787477
      6      O    -1.10598215     2.23354302     1.88971344
      7      C    -2.99421730     0.42256668    -0.81344819
      8      O    -3.03562631     1.22777134    -1.75562310
      9      N    -3.55878957    -0.81627512    -0.86164899
     10      C    -4.24829244    -1.28341320    -2.06306065
     11      H    -1.65548995     0.34086860     2.29218334
     12      H    -1.24778891     2.91918723    -1.14807294
     13      H    -1.23026692     4.09746164     0.22172666
     14      H    -2.76367923     3.44345991    -0.47042070
     15      H    -3.43641043    -1.42122982    -0.04636660
     16      H    -4.64556918    -2.28246667    -1.86562977
     17      H    -5.07074749    -0.60682382    -2.32340294
     18      H    -3.56249848    -1.32400710    -2.91846513

Total System Charge              0.00000

 *** GO1_GOStep21 ***

 Energy gradients wrt nuclear displacements
 ==========================================

     Atom      Cartesian (a.u./angstrom)
                 X         Y         Z
 ----------------------------------------
     1 O     0.000232  0.000249  0.000071
     2 N    -0.000313 -0.000207 -0.000008
     3 C     0.000078 -0.000075  0.000084
     4 C     0.000039  0.000062 -0.000019
     5 C     0.000862 -0.000070 -0.000379
     6 O    -0.000019  0.000130  0.000015
     7 C    -0.000063  0.000024 -0.000101
     8 O     0.000031 -0.000110 -0.000037
     9 N    -0.000303  0.000000  0.000174
    10 C     0.000173  0.000021 -0.000062
    11 H     0.000232  0.000165 -0.000048
    12 H    -0.000328 -0.000021  0.000124
    13 H    -0.000411  0.000023 -0.000111
    14 H    -0.000280  0.000128 -0.000029
    15 H     0.000136 -0.000049  0.000006
    16 H    -0.000027 -0.000070  0.000164
    17 H     0.000038 -0.000131  0.000084
    18 H    -0.000077 -0.000069  0.000071
 ----------------------------------------

 dE(predicted):    -0.86539E-06, dE(actual):    -0.18212E-05, Trust radius:    0.126495, all in a.u.
 
----------------------------------------------------------------------
Geometry Convergence after Step  21       (Hartree/Angstrom,Angstrom)
----------------------------------------------------------------------
current energy                               -3.87624623 Hartree
energy change                      -0.00000182     0.00018000    T
constrained gradient max            0.00090073     0.00010000    F
constrained gradient rms            0.00018290     0.00006667    F
gradient max                        0.00090073
gradient rms                        0.00018290
cart. step max                      0.03094561     0.01000000    F
cart. step rms                      0.00828426     0.00666667    F
 

--------
Geometry
--------
Formula: C5H8N2O3
Atoms
  Index Symbol   x (angstrom)   y (angstrom)   z (angstrom)
      1      O    -2.59412063    -1.28584360     1.62754635
      2      N    -2.18401710    -0.08221931     1.49624791
      3      C    -2.30658708     0.76631705     0.47861651
      4      C    -1.66163526     2.09825971     0.79373441
      5      C    -1.71732309     3.21985308    -0.20987178
      6      O    -1.10579031     2.23333597     1.88987286
      7      C    -2.99655293     0.42324130    -0.81247466
      8      O    -3.04072978     1.22938704    -1.75372099
      9      N    -3.55742027    -0.81722794    -0.86223377
     10      C    -4.24715863    -1.28386430    -2.06377658
     11      H    -1.66062050     0.34333263     2.29442825
     12      H    -1.24716360     2.91347195    -1.15090778
     13      H    -1.22022932     4.09409322     0.21722598
     14      H    -2.75823122     3.44671711    -0.46989483
     15      H    -3.43819293    -1.42095824    -0.04564522
     16      H    -4.61614717    -2.29587795    -1.87780722
     17      H    -5.09006950    -0.62572623    -2.30662354
     18      H    -3.56861067    -1.29306149    -2.92551588

Total System Charge              0.00000

 *** GO1_GOStep22 ***

 Energy gradients wrt nuclear displacements
 ==========================================

     Atom      Cartesian (a.u./angstrom)
                 X         Y         Z
 ----------------------------------------
     1 O     0.000271  0.000337  0.000032
     2 N    -0.000459 -0.000338  0.000014
     3 C     0.000070 -0.000186  0.000107
     4 C     0.000123  0.000175  0.000014
     5 C     0.001145 -0.000086 -0.000407
     6 O    -0.000043  0.000114  0.000016
     7 C    -0.000088  0.000037 -0.000152
     8 O     0.000011 -0.000126 -0.000046
     9 N    -0.000308 -0.000061  0.000260
    10 C     0.000327  0.000044 -0.000157
    11 H     0.000303  0.000235 -0.000043
    12 H    -0.000421 -0.000042  0.000175
    13 H    -0.000521 -0.000003 -0.000120
    14 H    -0.000334  0.000163 -0.000025
    15 H     0.000090 -0.000014 -0.000010
    16 H    -0.000014 -0.000111  0.000170
    17 H    -0.000007 -0.000099  0.000055
    18 H    -0.000146 -0.000039  0.000118
 ----------------------------------------

 dE(predicted):    -0.11793E-05, dE(actual):     0.16693E-05, Trust radius:    0.020453, all in a.u.
 
----------------------------------------------------------------------
Geometry Convergence after Step  22       (Hartree/Angstrom,Angstrom)
----------------------------------------------------------------------
current energy                               -3.87624456 Hartree
energy change                       0.00000167     0.00018000    T
constrained gradient max            0.00118115     0.00010000    F
constrained gradient rms            0.00024341     0.00006667    F
gradient max                        0.00118115
gradient rms                        0.00024341
cart. step max                      0.00456131     0.01000000    T
cart. step rms                      0.00170319     0.00666667    T
 

--------
Geometry
--------
Formula: C5H8N2O3
Atoms
  Index Symbol   x (angstrom)   y (angstrom)   z (angstrom)
      1      O    -2.59532512    -1.28547266     1.62734999
      2      N    -2.18530647    -0.08172544     1.49631279
      3      C    -2.30668364     0.76645896     0.47823387
      4      C    -1.66200474     2.09851482     0.79383945
      5      C    -1.71628666     3.22007909    -0.20980683
      6      O    -1.10692050     2.23345354     1.89037696
      7      C    -2.99664397     0.42347956    -0.81291252
      8      O    -3.04500436     1.23158116    -1.75227242
      9      N    -3.55285896    -0.81904168    -0.86442829
     10      C    -4.24733062    -1.28466512    -2.06364161
     11      H    -1.66348253     0.34421774     2.29528447
     12      H    -1.24401348     2.91357852    -1.14994414
     13      H    -1.21898682     4.09398969     0.21787425
     14      H    -2.75645666     3.44698501    -0.47206693
     15      H    -3.43478744    -1.42187533    -0.04700771
     16      H    -4.61448447    -2.29731643    -1.87778716
     17      H    -5.09182889    -0.62688401    -2.30209465
     18      H    -3.57219465    -1.29212744    -2.92810950

Total System Charge              0.00000

 *** GO1_GOStep23 ***

 Energy gradients wrt nuclear displacements
 ==========================================

     Atom      Cartesian (a.u./angstrom)
                 X         Y         Z
 ----------------------------------------
     1 O     0.000226  0.000276 -0.000002
     2 N    -0.000368 -0.000270  0.000032
     3 C     0.000033 -0.000204  0.000055
     4 C     0.000142  0.000250 -0.000003
     5 C     0.000778 -0.000026 -0.000237
     6 O    -0.000033  0.000092 -0.000004
     7 C    -0.000044  0.000037 -0.000136
     8 O    -0.000016 -0.000056 -0.000023
     9 N    -0.000130 -0.000094  0.000185
    10 C     0.000178 -0.000115 -0.000069
    11 H     0.000247  0.000232 -0.000023
    12 H    -0.000305 -0.000028  0.000091
    13 H    -0.000381 -0.000003 -0.000124
    14 H    -0.000229  0.000104 -0.000049
    15 H     0.000029  0.000025  0.000006
    16 H    -0.000006 -0.000081  0.000113
    17 H    -0.000030 -0.000076  0.000067
    18 H    -0.000090 -0.000062  0.000120
 ----------------------------------------

 dE(predicted):    -0.14936E-05, dE(actual):    -0.16146E-05, Trust radius:    0.040906, all in a.u.
 
----------------------------------------------------------------------
Geometry Convergence after Step  23       (Hartree/Angstrom,Angstrom)
----------------------------------------------------------------------
current energy                               -3.87624618 Hartree
energy change                      -0.00000161     0.00018000    T
constrained gradient max            0.00081609     0.00010000    F
constrained gradient rms            0.00017391     0.00006667    F
gradient max                        0.00081609
gradient rms                        0.00017391
cart. step max                      0.00505340     0.01000000    T
cart. step rms                      0.00190371     0.00666667    T
 

--------
Geometry
--------
Formula: C5H8N2O3
Atoms
  Index Symbol   x (angstrom)   y (angstrom)   z (angstrom)
      1      O    -2.59651224    -1.28534314     1.62718877
      2      N    -2.18630212    -0.08142683     1.49661124
      3      C    -2.30698721     0.76659956     0.47827573
      4      C    -1.66276831     2.09873514     0.79384588
      5      C    -1.71566444     3.21999182    -0.21020056
      6      O    -1.10798922     2.23379468     1.89049616
      7      C    -2.99700131     0.42374154    -0.81278892
      8      O    -3.04958372     1.23368904    -1.75030190
      9      N    -3.54864230    -0.82063330    -0.86621008
     10      C    -4.24745376    -1.28481835    -2.06339542
     11      H    -1.66649968     0.34459085     2.29669120
     12      H    -1.23960278     2.91341444    -1.14874128
     13      H    -1.21837638     4.09372618     0.21824600
     14      H    -2.75476595     3.44631989    -0.47610462
     15      H    -3.43072626    -1.42322711    -0.04853017
     16      H    -4.61201030    -2.29848459    -1.87820934
     17      H    -5.09398674    -0.62790280    -2.29704125
     18      H    -3.57572728    -1.28953701    -2.93063142

Total System Charge              0.00000

 *** GO1_GOStep24 ***

 Energy gradients wrt nuclear displacements
 ==========================================

     Atom      Cartesian (a.u./angstrom)
                 X         Y         Z
 ----------------------------------------
     1 O     0.000051  0.000098 -0.000016
     2 N     0.000032 -0.000060  0.000081
     3 C    -0.000046 -0.000130 -0.000007
     4 C     0.000074  0.000254 -0.000006
     5 C     0.000078 -0.000007 -0.000036
     6 O    -0.000031  0.000047 -0.000124
     7 C    -0.000027  0.000016 -0.000085
     8 O    -0.000033 -0.000092  0.000041
     9 N     0.000047  0.000028  0.000055
    10 C     0.000012 -0.000126  0.000058
    11 H     0.000084  0.000154  0.000008
    12 H    -0.000081 -0.000004 -0.000066
    13 H    -0.000093  0.000028 -0.000115
    14 H    -0.000077  0.000002 -0.000078
    15 H     0.000031  0.000005  0.000050
    16 H     0.000024 -0.000049  0.000093
    17 H    -0.000037 -0.000078  0.000072
    18 H    -0.000008 -0.000086  0.000075
 ----------------------------------------

 dE(predicted):    -0.11151E-05, dE(actual):    -0.20035E-05, Trust radius:    0.040906, all in a.u.
 
----------------------------------------------------------------------
Geometry Convergence after Step  24       (Hartree/Angstrom,Angstrom)
----------------------------------------------------------------------
current energy                               -3.87624818 Hartree
energy change                      -0.00000200     0.00018000    T
constrained gradient max            0.00020905     0.00010000    F
constrained gradient rms            0.00005511     0.00006667    T
gradient max                        0.00020905
gradient rms                        0.00005511
cart. step max                      0.00053129     0.01000000    T
cart. step rms                      0.00016970     0.00666667    T
 

--------
Geometry
--------
Formula: C5H8N2O3
Atoms
  Index Symbol   x (angstrom)   y (angstrom)   z (angstrom)
      1      O    -2.59659471    -1.28532673     1.62726806
      2      N    -2.18648171    -0.08135574     1.49662262
      3      C    -2.30713331     0.76668998     0.47832218
      4      C    -1.66282515     2.09869586     0.79380376
      5      C    -1.71566817     3.21996335    -0.21028431
      6      O    -1.10790135     2.23380231     1.89041452
      7      C    -2.99717326     0.42376874    -0.81266723
      8      O    -3.05004808     1.23383676    -1.75010318
      9      N    -3.54851188    -0.82075320    -0.86618828
     10      C    -4.24733797    -1.28481014    -2.06340036
     11      H    -1.66675717     0.34454567     2.29676192
     12      H    -1.23979165     2.91327221    -1.14890988
     13      H    -1.21784509     4.09347981     0.21805351
     14      H    -2.75471472     3.44664150    -0.47597938
     15      H    -3.43047754    -1.42341920    -0.04856261
     16      H    -4.61167361    -2.29859729    -1.87839013
     17      H    -5.09397979    -0.62799437    -2.29685398
     18      H    -3.57568485    -1.28920952    -2.93070723

Total System Charge              0.00000

 *** GO1_GOStep25 ***

 Energy gradients wrt nuclear displacements
 ==========================================

     Atom      Cartesian (a.u./angstrom)
                 X         Y         Z
 ----------------------------------------
     1 O     0.000060  0.000060  0.000026
     2 N     0.000027  0.000020  0.000003
     3 C    -0.000021 -0.000053  0.000004
     4 C     0.000025  0.000150 -0.000055
     5 C    -0.000027 -0.000001 -0.000044
     6 O     0.000011  0.000074 -0.000060
     7 C    -0.000016 -0.000026 -0.000018
     8 O    -0.000027 -0.000033 -0.000007
     9 N     0.000031 -0.000011  0.000057
    10 C    -0.000000 -0.000090  0.000068
    11 H     0.000058  0.000112 -0.000002
    12 H    -0.000053  0.000004 -0.000083
[...]
                                   -1.93%     3 S              14.073  0.00     5 N
                                   -1.79%     1 P:z            -5.239  0.67    10 C
                                    1.54%     2 S             -18.450  2.00     4 N
                                    1.43%     2 S             -13.620  2.00    10 C
                                    1.23%     1 P:x            -5.239  0.67    10 C
                                   -1.10%     3 S              21.524  0.00     1 O
                                   -1.08%     2 P:z             4.589  0.00     6 C
                                    1.07%     2 P:x             4.589  0.00    10 C
                                   -1.04%     2 P:y             4.589  0.00     9 C
                                    1.03%     2 P:z             4.589  0.00     9 C
                                   -1.02%     3 S              10.158  0.00    10 C
       1.252  0.00    46 A         28.57%     1 S              -6.532  1.00    13 H
                                   25.24%     2 S               2.394  0.00    13 H
                                   15.07%     1 S              -6.532  1.00    16 H
                                  -10.16%     2 P:x             4.589  0.00     8 C
                                   10.01%     2 S               2.394  0.00    16 H
                                   -9.97%     2 P:y             4.589  0.00    10 C
                                    9.28%     1 P:z            -5.239  0.67    10 C
                                   -8.60%     2 P:z             4.589  0.00     8 C
                                    8.33%     2 P:z             4.589  0.00    10 C
                                    7.61%     2 S               2.394  0.00    15 H
                                    7.58%     2 P:y             4.589  0.00     7 C
                                    5.94%     1 S              -6.532  1.00    15 H
                                   -5.54%     2 P:y             4.589  0.00     8 C
                                    3.79%     1 P:z            -5.239  0.67     8 C
                                    3.00%     1 S              -6.532  1.00    14 H
                                    2.93%     1 S              -6.532  1.00    17 H
                                   -2.63%     3 S              14.073  0.00     5 N
                                    2.50%     2 P:y             4.589  0.00     6 C
                                    2.26%     2 P:x             4.589  0.00     6 C
                                    2.19%     1 P:y            -5.239  0.67     7 C
                                    2.17%     1 S              -6.532  1.00    11 H
                                    2.16%     2 P:x             4.589  0.00     7 C
                                   -2.01%     3 S              10.158  0.00     6 C
                                   -1.94%     2 S             -13.620  2.00     9 C
                                    1.78%     2 P:x             4.589  0.00    10 C
                                   -1.69%     2 S               2.394  0.00    12 H
                                   -1.57%     3 S              10.158  0.00     8 C
                                    1.54%     2 S             -18.450  2.00     5 N
                                   -1.48%     3 S              10.158  0.00     9 C
                                    1.36%     1 P:x            -5.239  0.67    10 C
                                    1.31%     3 S              40.869  0.00    16 H
                                    1.27%     2 P:z             4.589  0.00     6 C
                                   -1.16%     2 S               2.394  0.00    11 H
                                    1.13%     1 P:x            -5.239  0.67     8 C
                                    1.06%     3 S              40.869  0.00    13 H
                                   -1.03%     2 S             -13.620  2.00     6 C
                                    1.03%     2 P:y             7.649  0.00     5 N
       1.327  0.00    47 A         25.08%     1 S              -6.532  1.00    18 H
                                   21.40%     2 S               2.394  0.00    18 H
                                   17.63%     1 S              -6.532  1.00    17 H
                                  -16.73%     2 P:x             4.589  0.00    10 C
                                   16.59%     2 S               2.394  0.00    17 H
                                    8.93%     2 S               2.394  0.00    12 H
                                    7.56%     2 S               2.394  0.00    14 H
                                    6.37%     1 S              -6.532  1.00    12 H
                                   -5.91%     2 P:x             4.589  0.00     8 C
                                    5.42%     2 P:x             4.589  0.00     9 C
                                    5.04%     1 S              -6.532  1.00    14 H
                                   -4.89%     2 P:z             4.589  0.00    10 C
                                   -2.77%     2 P:z             4.589  0.00     8 C
                                    1.66%     1 P:z            -5.239  0.67    10 C
                                    1.57%     3 S              40.869  0.00    18 H
                                   -1.49%     2 P:x             9.437  0.00     3 O
                                   -1.40%     2 P:y             4.589  0.00     8 C
                                    1.39%     2 P:x             4.589  0.00     7 C
                                    1.33%     1 P:x            -5.239  0.67     7 C
                                    1.27%     3 S              40.869  0.00    17 H
                                    1.14%     1 P:x            -5.239  0.67    10 C

 Energy gradients wrt nuclear displacements
 ==========================================

     Atom      Cartesian (a.u./angstrom)
                 X         Y         Z
 ----------------------------------------
     1 O     0.000058  0.000042  0.000047
     2 N     0.000043  0.000063  0.000004
     3 C     0.000004  0.000005 -0.000009
     4 C     0.000006  0.000078 -0.000053
     5 C    -0.000058  0.000006 -0.000058
     6 O     0.000004  0.000078 -0.000071
     7 C    -0.000007 -0.000024  0.000007
     8 O    -0.000032 -0.000042 -0.000008
     9 N     0.000016 -0.000014  0.000044
    10 C     0.000002 -0.000067  0.000072
    11 H     0.000045  0.000082 -0.000007
    12 H    -0.000044  0.000004 -0.000085
    13 H    -0.000038  0.000041 -0.000109
    14 H    -0.000047 -0.000007 -0.000071
    15 H     0.000039 -0.000010  0.000066
    16 H     0.000024 -0.000070  0.000102
    17 H    -0.000009 -0.000088  0.000069
    18 H    -0.000007 -0.000079  0.000059
 ----------------------------------------



 =======================================================================
 Electrostatic potential at the Nuclei due to electrons and other nuclei
 =======================================================================
  
         Atom                  Potential
         ----                  ---------
     1)   O                  22.36474108
     2)   N                  18.25219643
     3)   C                  14.70782766
     4)   C                  14.67498647
     5)   C                  14.77847920
     6)   O                  22.38975228
     7)   C                  14.67048922
     8)   O                  22.42389565
     9)   N                  18.37704689
    10)   C                  14.74375581
    11)   H                   0.96938180
    12)   H                   1.09028937
    13)   H                   1.10234960
    14)   H                   1.09018309
    15)   H                   1.00923450
    16)   H                   1.09221926
    17)   H                   1.10054350
    18)   H                   1.10067571
 Mulliken charges used for AMS results%charges...


    =====================
     CALCULATION RESULTS
    =====================

Energy (hartree)            -3.87624843

Gradients (hartree/bohr)
  Index   Atom            d/dx            d/dy            d/dz
      1      O    0.0000307419    0.0000221578    0.0000249154
      2      N    0.0000228462    0.0000334770    0.0000021337
      3      C    0.0000021120    0.0000027463   -0.0000046662
      4      C    0.0000030020    0.0000415018   -0.0000277998
      5      C   -0.0000306142    0.0000030235   -0.0000307738
      6      O    0.0000021757    0.0000414332   -0.0000376493
      7      C   -0.0000035803   -0.0000124672    0.0000039016
      8      O   -0.0000171930   -0.0000222356   -0.0000041960
      9      N    0.0000084220   -0.0000072291    0.0000231222
     10      C    0.0000013121   -0.0000353395    0.0000379550
     11      H    0.0000237871    0.0000431484   -0.0000034947
     12      H   -0.0000233759    0.0000023614   -0.0000449756
     13      H   -0.0000201618    0.0000216710   -0.0000574255
     14      H   -0.0000247898   -0.0000038698   -0.0000373253
     15      H    0.0000207672   -0.0000050795    0.0000349675
     16      H    0.0000128946   -0.0000368678    0.0000537807
     17      H   -0.0000046625   -0.0000466575    0.0000363541
     18      H   -0.0000036832   -0.0000417746    0.0000311762


--------------
Atomic charges
--------------
  Index   Atom    Charge
      1      O   -0.4695
      2      N    0.4515
      3      C   -0.0110
      4      C    0.4465
      5      C    0.6222
      6      O   -0.5311
      7      C    0.5735
      8      O   -0.5921
      9      N   -0.1481
     10      C    0.7920
     11      H   -0.0372
     12      H   -0.1483
     13      H   -0.2162
     14      H   -0.1530
     15      H    0.0096
     16      H   -0.2315
     17      H   -0.1785
     18      H   -0.1788


Dipole moment vector    (Debye):    -0.83087162   -0.95380264   -0.67729299
              magnitude (Debye):     1.43485641


-----------------------
Molecular orbitals info
-----------------------
n orbitals:              348
n spin:                    1

Note: only printing virtual orbitals with
      energy smaller than HOMO + 100. eV

HOMO (eV):              -6.2810
LUMO (eV):              -3.8310
HOMO-LUMO gap (eV):      2.4500

   Index   Energy (eV)    Occupation
     217       93.5777         0.000       
     216       92.9143         0.000       
     215       92.4589         0.000       
     214       92.1869         0.000       
     213       91.7489         0.000       
     212       90.6850         0.000       
     211       90.4347         0.000       
     210       89.9624         0.000       
     209       88.9708         0.000       
     208       87.9886         0.000       
     207       87.5044         0.000       
     206       85.8854         0.000       
     205       85.2815         0.000       
     204       83.5318         0.000       
     203       82.9895         0.000       
     202       82.1483         0.000       
     201       81.9027         0.000       
     200       81.4282         0.000       
     199       81.2105         0.000       
     198       80.3193         0.000       
     197       78.8829         0.000       
     196       78.3507         0.000       
     195       78.2742         0.000       
     194       78.0198         0.000       
     193       77.1680         0.000       
     192       76.8027         0.000       
     191       76.5081         0.000       
     190       76.2165         0.000       
     189       75.8437         0.000       
     188       75.4814         0.000       
     187       75.2892         0.000       
     186       75.1894         0.000       
     185       74.7595         0.000       
     184       73.6548         0.000       
     183       71.6314         0.000       
     182       69.3889         0.000       
     181       69.2269         0.000       
     180       68.1771         0.000       
     179       67.2918         0.000       
     178       66.7853         0.000       
     177       66.0150         0.000       
     176       65.0754         0.000       
     175       63.9603         0.000       
     174       63.8083         0.000       
     173       63.2751         0.000       
     172       62.2197         0.000       
     171       62.0024         0.000       
     170       61.3786         0.000       
     169       61.1912         0.000       
     168       59.9080         0.000       
     167       57.6944         0.000       
     166       57.3482         0.000       
     165       56.3492         0.000       
     164       56.1052         0.000       
     163       55.2844         0.000       
     162       55.1226         0.000       
     161       54.2625         0.000       
     160       53.9553         0.000       
     159       53.5900         0.000       
     158       52.3483         0.000       
     157       52.2336         0.000       
     156       51.4866         0.000       
     155       51.0775         0.000       
     154       50.5287         0.000       
     153       49.5898         0.000       
     152       49.4361         0.000       
     151       48.0770         0.000       
     150       47.9193         0.000       
     149       47.0475         0.000       
     148       46.6899         0.000       
     147       46.5245         0.000       
     146       44.9056         0.000       
     145       44.7650         0.000       
     144       44.6157         0.000       
     143       44.0379         0.000       
     142       43.0449         0.000       
     141       42.7300         0.000       
     140       42.4586         0.000       
     139       41.4582         0.000       
     138       40.1200         0.000       
     137       39.9114         0.000       
     136       39.5266         0.000       
     135       38.9115         0.000       
     134       37.7135         0.000       
     133       37.4432         0.000       
     132       37.2891         0.000       
     131       36.8539         0.000       
     130       36.4825         0.000       
     129       36.1619         0.000       
     128       35.1240         0.000       
     127       34.4771         0.000       
     126       34.0481         0.000       
     125       33.7845         0.000       
     124       33.0865         0.000       
     123       32.8405         0.000       
     122       32.4389         0.000       
     121       31.2812         0.000       
     120       31.1877         0.000       
     119       30.4824         0.000       
     118       29.8839         0.000       
     117       29.6294         0.000       
     116       29.1719         0.000       
     115       28.2915         0.000       
     114       28.1954         0.000       
     113       28.0793         0.000       
     112       27.7203         0.000       
     111       27.0143         0.000       
     110       26.8912         0.000       
     109       26.3454         0.000       
     108       25.9167         0.000       
     107       25.6433         0.000       
     106       25.5353         0.000       
     105       24.5184         0.000       
     104       23.9716         0.000       
     103       23.7070         0.000       
     102       23.6086         0.000       
     101       22.9252         0.000       
     100       21.7943         0.000       
      99       21.6611         0.000       
      98       21.0015         0.000       
      97       20.6232         0.000       
      96       19.4031         0.000       
      95       18.3933         0.000       
      94       18.2138         0.000       
      93       17.7674         0.000       
      92       16.9492         0.000       
      91       16.5358         0.000       
      90       16.3679         0.000       
      89       15.4349         0.000       
      88       14.4368         0.000       
      87       14.3477         0.000       
      86       14.1726         0.000       
      85       13.3458         0.000       
      84       13.2425         0.000       
      83       12.9695         0.000       
      82       12.3057         0.000       
      81       12.2751         0.000       
      80       12.0493         0.000       
      79       11.4341         0.000       
      78       11.0047         0.000       
      77       10.6259         0.000       
      76       10.3564         0.000       
      75       10.1751         0.000       
      74        9.9725         0.000       
      73        9.4160         0.000       
      72        9.1872         0.000       
      71        8.8337         0.000       
      70        8.6144         0.000       
      69        8.4732         0.000       
      68        8.0273         0.000       
      67        7.8728         0.000       
      66        7.1254         0.000       
      65        6.8377         0.000       
      64        6.6683         0.000       
      63        6.5533         0.000       
      62        6.4011         0.000       
      61        5.5016         0.000       
      60        5.2877         0.000       
      59        4.7304         0.000       
      58        4.6483         0.000       
      57        4.5965         0.000       
      56        4.2726         0.000       
      55        4.2644         0.000       
      54        3.8795         0.000       
      53        3.6782         0.000       
      52        3.3192         0.000       
      51        2.5080         0.000       
      50        2.1154         0.000       
      49        2.0140         0.000       
      48        1.6282         0.000       
      47        1.3269         0.000       
      46        1.2522         0.000       
      45        0.8136         0.000       
      44        0.6859         0.000       
      43        0.3747         0.000       
      42       -0.0842         0.000       
      41       -0.3561         0.000       
      40       -1.6475         0.000       
      39       -3.8310         0.000 < LUMO
      38       -6.2810         2.000 < HOMO
      37       -6.4014         2.000       
      36       -6.4261         2.000       
      35       -6.7422         2.000       
      34       -7.2894         2.000       
      33       -9.1584         2.000       
      32       -9.5602         2.000       
      31       -9.7602         2.000       
      30       -9.9143         2.000       
      29      -10.2861         2.000       
      28      -10.7553         2.000       
      27      -10.9220         2.000       
      26      -11.1673         2.000       
      25      -11.3731         2.000       
      24      -11.9709         2.000       
      23      -12.2334         2.000       
      22      -12.8756         2.000       
      21      -13.6467         2.000       
      20      -14.8414         2.000       
      19      -15.1854         2.000       
      18      -16.7288         2.000       
      17      -18.2656         2.000       
      16      -18.9667         2.000       
      15      -22.3092         2.000       
      14      -23.1372         2.000       
      13      -25.9901         2.000       
      12      -26.4817         2.000       
      11      -28.6492         2.000       
      10     -270.2297         2.000       
       9     -271.1050         2.000       
       8     -272.2241         2.000       
       7     -273.1673         2.000       
       6     -273.1865         2.000       
       5     -382.5537         2.000       
       4     -386.0139         2.000       
       3     -510.8362         2.000       
       2     -511.7932         2.000       
       1     -512.5566         2.000       

AMS application finished. Exiting.
NORMAL TERMINATION
     Total cpu time:    1610.23
  Total system time:      10.26
 Total elapsed time:    1629.37
NORMAL TERMINATION
