
 *******************************************************************************
 *                                                                             *
 *  --------------------------------                                           *
 *   Amsterdam Modeling Suite (AMS)              2026.103                      *
 *  --------------------------------                                           *
 *                                               r260501 2026-05-01 873454b5   *
 *                                                                             *
 *                                                                             *
 *                              =================                              *
 *                              |               |                              *
 *                              |     A M S     |                              *
 *                              |               |                              *
 *                              =================                              *
 *                                                                             *
 *                                                                             *
 *   Online information and documentation:  https://www.scm.com/support/       *
 *   E-mail:  support@scm.com   info@scm.com                                   *
 *                                                                             *
 *   Scientific publications using AMS results must be properly referenced     *
 *   See the User Manuals (or the web site) for recommended citations          *
 *   The terms and conditions of the End User License Agreement apply to       *
 *   the use of AMS, https://www.scm.com/license-terms/                        *
 *                                                                             *
 **********************  x86_64_linux_intel / intelmpi  ************************
 
 Licensed to: Jong-June Jeon / University of Seoul 2026-05-13 16:10:32
 SCM User ID: u30731
  
 AMS 2026.103  RunTime: May31-2026 21:57:55  ShM Nodes: 1  Procs: 1

 AMS jobname: c1_fragA_ts
 AMS jobid  : 429869868

 Start   directory: /gpfs/home1/yeseo1ee/projects/eda-asm-prediction/adf_outputs/batch_001/dipolar_001958/
 Results directory: /gpfs/home1/yeseo1ee/projects/eda-asm-prediction/adf_outputs/batch_001/dipolar_001958/c1_fragA_ts.results/
 Scratch directory: /tmp/amstmp_c1_fragA_ts_kid0.429869868/

 RNG seed: 800361889 2114299636 745714228 -1231769245 -2073518015 2119590967 -131454245 921498164



                      ************************************************************************
                      *  ADF 2026.103  RunTime: May31-2026 21:57:55  ShM Nodes: 1  Procs: 1  *
                      ************************************************************************
  

       ****************************
       * SINGLE POINT CALCULATION *
       ****************************

--------
Geometry
--------
Formula: C8H9N3O2
Atoms
  Index Symbol   x (angstrom)   y (angstrom)   z (angstrom)
      1      C    -8.41329000   -12.90580000    10.61468000
      2      O    -9.82261000   -13.11357000    10.43996000
      3      C   -10.21778000   -13.49586000     9.23083000
      4      O    -9.49201000   -13.58614000     8.25549000
      5      N   -11.59600000   -13.75640000     9.24919000
      6      N   -12.04124000   -14.05224000     8.03409000
      7      N   -13.21981000   -14.53873000     7.85000000
      8      C   -14.34933000   -13.98976000     8.50238000
      9      C   -14.35062000   -12.89987000     9.39344000
     10      C   -15.55967000   -12.43232000     9.91167000
     11      C   -16.77094000   -13.04474000     9.57520000
     12      C   -16.77165000   -14.12255000     8.68273000
     13      C   -15.57427000   -14.58069000     8.13925000
     14      H    -8.07790000   -12.06086000     9.99606000
     15      H    -7.85568000   -13.81137000    10.34128000
     16      H    -8.27229000   -12.67912000    11.67661000
     17      H   -11.33388000   -14.39079000     7.36545000
     18      H   -13.41610000   -12.42874000     9.68504000
     19      H   -15.54989000   -11.58244000    10.59826000
     20      H   -17.70866000   -12.68034000    10.00040000
     21      H   -17.71115000   -14.60324000     8.40087000
     22      H   -15.56041000   -15.41424000     7.43756000

Total System Charge              0.00000


----------------
ADF Engine Input
----------------
 
   Basis
     Type TZ2P
     Core None
   End
   XC
     GGA BLYP
     Dispersion GRIMME3 BJDAMP
   End
   Symmetry NOSYM
   NumericalQuality Normal
   Unrestricted No
   SCF
     Iterations 200
     Converge 1.0e-6
   End
   Save TAPE21
 

 Title: *** (NO TITLE) ***

 *** adf ***



 ===========================
 A T T A C H E D   F I L E S
 ===========================
  



 ===============================
 M O D E L   P A R A M E T E R S
 ===============================
  
 DENSITY FUNCTIONAL POTENTIAL (scf)
    LDA:                               Exchange only                           == Not Default ==
    Gradient Corrections:              Becke88 LYP                             == Not Default ==

 SPIN  (restricted / unrestr.)
    Molecule:                          Restricted                               
    Fragments:                         Restricted                               

 OTHER ASPECTS
    Relativistic Corrections:          scalar (ZORA,MAPA)                       

    Nuclear Charge Density Model:      Point Charge Nuclei                      
    Core Treatment:                    Frozen Orbital(s)                        

    Hyperfine or Zeeman Interaction:   ---                                      

 Settings for Grimme D3 dispersion correction

      damping                        BJ
      s6                          1.000
      s8                          2.700
      a1                          0.430
      a2                          4.236

 Other (technical) parameters

      alpha                      14.000
      version                         4
 


 Fragment File(s)
 ----------------
 C:
         file : /gpfs/home1/yeseo1ee/projects/eda-asm-prediction/adf_outputs/batch_001/dipolar_001958/c1_fragA_ts.results/t21.50BA88D5.C
         jobid: 0
         title: Carbon (TZ2P)
 O:
         file : /gpfs/home1/yeseo1ee/projects/eda-asm-prediction/adf_outputs/batch_001/dipolar_001958/c1_fragA_ts.results/t21.6E90ABAE.O
         jobid: 0
         title: Oxygen (TZ2P)
 N:
         file : /gpfs/home1/yeseo1ee/projects/eda-asm-prediction/adf_outputs/batch_001/dipolar_001958/c1_fragA_ts.results/t21.44EAA48D.N
         jobid: 0
         title: Nitrogen (TZ2P)
 H:
         file : /gpfs/home1/yeseo1ee/projects/eda-asm-prediction/adf_outputs/batch_001/dipolar_001958/c1_fragA_ts.results/t21.6F35CCAB.H
         jobid: 0
         title: Hydrogen (TZ2P)



 ===============
 G E O M E T R Y  ***  3D  Molecule  ***
 ===============
  

 ATOMS
 =====                            X Y Z                    CHARGE
                                (Angstrom)             Nucl     +Core       At.Mass
                       --------------------------    ----------------       -------
    1  C              -8.4133  -12.9058   10.6147      6.00      6.00       12.0000
    2  O              -9.8226  -13.1136   10.4400      8.00      8.00       15.9949
    3  C             -10.2178  -13.4959    9.2308      6.00      6.00       12.0000
    4  O              -9.4920  -13.5861    8.2555      8.00      8.00       15.9949
    5  N             -11.5960  -13.7564    9.2492      7.00      7.00       14.0031
    6  N             -12.0412  -14.0522    8.0341      7.00      7.00       14.0031
    7  N             -13.2198  -14.5387    7.8500      7.00      7.00       14.0031
    8  C             -14.3493  -13.9898    8.5024      6.00      6.00       12.0000
    9  C             -14.3506  -12.8999    9.3934      6.00      6.00       12.0000
   10  C             -15.5597  -12.4323    9.9117      6.00      6.00       12.0000
   11  C             -16.7709  -13.0447    9.5752      6.00      6.00       12.0000
   12  C             -16.7717  -14.1226    8.6827      6.00      6.00       12.0000
   13  C             -15.5743  -14.5807    8.1393      6.00      6.00       12.0000
   14  H              -8.0779  -12.0609    9.9961      1.00      1.00        1.0078
   15  H              -7.8557  -13.8114   10.3413      1.00      1.00        1.0078
   16  H              -8.2723  -12.6791   11.6766      1.00      1.00        1.0078
   17  H             -11.3339  -14.3908    7.3655      1.00      1.00        1.0078
   18  H             -13.4161  -12.4287    9.6850      1.00      1.00        1.0078
   19  H             -15.5499  -11.5824   10.5983      1.00      1.00        1.0078
   20  H             -17.7087  -12.6803   10.0004      1.00      1.00        1.0078
   21  H             -17.7111  -14.6032    8.4009      1.00      1.00        1.0078
   22  H             -15.5604  -15.4142    7.4376      1.00      1.00        1.0078


 FRAGMENTS
 =========                                     Atoms in this Fragment     Cart. coord.s (Angstrom)
                                               -------------------------------------------------------
    1  C                                                 1  C           -8.4133  -12.9058   10.6147
    2  C                                                 3  C          -10.2178  -13.4959    9.2308
    3  C                                                 8  C          -14.3493  -13.9898    8.5024
    4  C                                                 9  C          -14.3506  -12.8999    9.3934
    5  C                                                10  C          -15.5597  -12.4323    9.9117
    6  C                                                11  C          -16.7709  -13.0447    9.5752
    7  C                                                12  C          -16.7717  -14.1226    8.6827
    8  C                                                13  C          -15.5743  -14.5807    8.1393
    9  O                                                 2  O           -9.8226  -13.1136   10.4400
   10  O                                                 4  O           -9.4920  -13.5861    8.2555
   11  N                                                 5  N          -11.5960  -13.7564    9.2492
   12  N                                                 6  N          -12.0412  -14.0522    8.0341
   13  N                                                 7  N          -13.2198  -14.5387    7.8500
   14  H                                                14  H           -8.0779  -12.0609    9.9961
   15  H                                                15  H           -7.8557  -13.8114   10.3413
   16  H                                                16  H           -8.2723  -12.6791   11.6766
   17  H                                                17  H          -11.3339  -14.3908    7.3655
   18  H                                                18  H          -13.4161  -12.4287    9.6850
   19  H                                                19  H          -15.5499  -11.5824   10.5983
   20  H                                                20  H          -17.7087  -12.6803   10.0004
   21  H                                                21  H          -17.7111  -14.6032    8.4009
   22  H                                                22  H          -15.5604  -15.4142    7.4376



 =====================================
 S Y M M E T R Y ,   E L E C T R O N S
 =====================================
  
 Symmetry: NOSYM

 Irreducible Representations, including subspecies
 -------------------------------------------------
 A


 Configuration of Valence Electrons
 ==================================
 ( determined in the SCF procedure )

 Total:   94

 Net Charge: 0 (Nuclei minus Electrons)

 Aufbau principle for MO occupations will be applied through SCF cycle no.     100
 Thereafter, the program will assign electrons to MOs that are spatially
 similar to the occupied MOs in a "reference" cycle ("KeepOrbitals").
 The reference cycle is always the PREVIOUS cycle: it will evolve with
 the SCF procedure.
 ***************************************************************************************************



                                      ****************************************
                                      *  B U I L D : (Fragments, Functions)  *
                                      ****************************************
  



 =======
 S F O s  ***  (Symmetrized Fragment Orbitals)  ***
 =======
  
 SFOs are linear combinations of (valence) Fragment Orbitals (FOs), such that the SFOs transform as the
 irreducible representations of the (molecular) symmetry group. Each SFO is therefore characterized by
 an irrep of the molecule and by a few (or only one) generating FOs.
 The SFOs constitute a symmetry-adapted basis for the Fock matrix. The MO eigenvector coefficients in
 this basis provide a direct interpretation of the MOs in terms of Frontier Orbital Theory.

 The SFOs are combined with auxiliary Core Functions (CFs) to ensure orthogonalization on the (frozen)
 Core Orbitals (COs). The Core-orthogonalized SFOs (CSFOs) constitute the true Fock basis.

 The FOs, and hence also the (C)SFOs are combinations of the elementary basis functions (BAS). The basis
 functions that participate in the description of the SFOs depend on the irrep. The indices of the
 involved functions are printed below for each irrep.
 (The complete list of primitive basis functions is printed in another section)

 Total nr. of (C)SFOs (summation over all irreps) :   437

 NOTE: a (C)SFO that is defined as a combination of more than one FO is usually NOT normalized.



                                       === A ===
 Nr. of SFOs :  437
 Cartesian basis functions that participate in this irrep (total number =   498) :
      1     2     3     4     5     6     9    12     7    10
     13     8    11    14    15    16    17    18    19    20
     21    22    23    24    25    26    27    28    29    30
     31    32    33    34    35    36    39    42    37    40
     43    38    41    44    45    46    47    48    49    50
     51    52    53    54    55    56    57    58    59    60
     61    62    63    64    65    66    69    72    67    70
     73    68    71    74    75    76    77    78    79    80
     81    82    83    84    85    86    87    88    89    90
     91    92    93    94    95    96    99   102    97   100
    103    98   101   104   105   106   107   108   109   110
    111   112   113   114   115   116   117   118   119   120
    121   122   123   124   125   126   129   132   127   130
    133   128   131   134   135   136   137   138   139   140
    141   142   143   144   145   146   147   148   149   150
    151   152   153   154   155   156   159   162   157   160
    163   158   161   164   165   166   167   168   169   170
    171   172   173   174   175   176   177   178   179   180
    181   182   183   184   185   186   189   192   187   190
    193   188   191   194   195   196   197   198   199   200
    201   202   203   204   205   206   207   208   209   210
    211   212   213   214   215   216   219   222   217   220
    223   218   221   224   225   226   227   228   229   230
    231   232   233   234   235   236   237   238   239   240
    241   242   243   244   245   246   249   252   247   250
    253   248   251   254   255   256   257   258   259   260
    261   262   263   264   265   266   267   268   269   270
    271   272   273   274   275   276   279   282   277   280
    283   278   281   284   285   286   287   288   289   290
    291   292   293   294   295   296   297   298   299   300
    301   302   303   304   305   306   309   312   307   310
    313   308   311   314   315   316   317   318   319   320
    321   322   323   324   325   326   327   328   329   330
    331   332   333   334   335   336   339   342   337   340
    343   338   341   344   345   346   347   348   349   350
    351   352   353   354   355   356   357   358   359   360
    361   362   363   364   365   366   369   372   367   370
    373   368   371   374   375   376   377   378   379   380
    381   382   383   384   385   386   387   388   389   390
    391   392   393   394   395   396   397   398   399   400
    401   402   403   404   405   406   407   408   409   410
    411   412   413   414   415   416   417   418   419   420
    421   422   423   424   425   426   427   428   429   430
    431   432   433   434   435   436   437   438   439   440
    441   442   443   444   445   446   447   448   449   450
    451   452   453   454   455   456   457   458   459   460
    461   462   463   464   465   466   467   468   469   470
    471   472   473   474   475   476   477   478   479   480
    481   482   483   484   485   486   487   488   489   490
    491   492   493   494   495   496   497   498

    SFO  (index         Fragment          Generating    Expansion in Fragment Orbitals
  indx  incl.CFs)   Occup   Orb.Energy   FragmentType  Coeff.   Orbital     on Fragment
 --------------------------------------------------------------------------------------
     1       1      2.000     -10.066 au  C             1.00      1 S               1
                        (    -273.921 eV)
     2       2      2.000      -0.501 au  C             1.00      2 S               1
                        (     -13.620 eV)
     3       3       --         0.373 au  C             1.00      3 S               1
                        (      10.158 eV)
     4       4       --         5.405 au  C             1.00      4 S               1
                        (     147.073 eV)
     5       5       --        49.848 au  C             1.00      5 S               1
                        (    1356.422 eV)
     6       6      0.667      -0.193 au  C             1.00      1 P:x             1
                        (      -5.239 eV)
     7       7       --         0.169 au  C             1.00      2 P:x             1
                        (       4.589 eV)
     8       8       --         2.013 au  C             1.00      3 P:x             1
                        (      54.789 eV)
     9       9      0.667      -0.193 au  C             1.00      1 P:y             1
                        (      -5.239 eV)
    10      10       --         0.169 au  C             1.00      2 P:y             1
                        (       4.589 eV)
    11      11       --         2.013 au  C             1.00      3 P:y             1
                        (      54.789 eV)
    12      12      0.667      -0.193 au  C             1.00      1 P:z             1
                        (      -5.239 eV)
    13      13       --         0.169 au  C             1.00      2 P:z             1
                        (       4.589 eV)
    14      14       --         2.013 au  C             1.00      3 P:z             1
                        (      54.789 eV)
    15      15       --         1.243 au  C             1.00      1 D:z2            1
                        (      33.824 eV)
    16      16       --         1.243 au  C             1.00      1 D:x2-y2         1
                        (      33.824 eV)
    17      17       --         1.243 au  C             1.00      1 D:xy            1
                        (      33.824 eV)
    18      18       --         1.243 au  C             1.00      1 D:xz            1
                        (      33.824 eV)
    19      19       --         1.243 au  C             1.00      1 D:yz            1
                        (      33.824 eV)
    20      20       --         4.016 au  C             1.00      1 F:z3            1
                        (     109.271 eV)
    21      21       --         4.016 au  C             1.00      1 F:z             1
                        (     109.271 eV)
    22      22       --         4.016 au  C             1.00      1 F:xyz           1
                        (     109.271 eV)
    23      23       --         4.016 au  C             1.00      1 F:z2x           1
                        (     109.271 eV)
    24      24       --         4.016 au  C             1.00      1 F:z2y           1
                        (     109.271 eV)
    25      25       --         4.016 au  C             1.00      1 F:x             1
                        (     109.271 eV)
    26      26       --         4.016 au  C             1.00      1 F:y             1
                        (     109.271 eV)
    27      27      2.000     -10.066 au  C             1.00      1 S               2
                        (    -273.921 eV)
    28      28      2.000      -0.501 au  C             1.00      2 S               2
                        (     -13.620 eV)
    29      29       --         0.373 au  C             1.00      3 S               2
                        (      10.158 eV)
    30      30       --         5.405 au  C             1.00      4 S               2
                        (     147.073 eV)
    31      31       --        49.848 au  C             1.00      5 S               2
                        (    1356.422 eV)
    32      32      0.667      -0.193 au  C             1.00      1 P:x             2
                        (      -5.239 eV)
    33      33       --         0.169 au  C             1.00      2 P:x             2
                        (       4.589 eV)
    34      34       --         2.013 au  C             1.00      3 P:x             2
                        (      54.789 eV)
    35      35      0.667      -0.193 au  C             1.00      1 P:y             2
                        (      -5.239 eV)
    36      36       --         0.169 au  C             1.00      2 P:y             2
                        (       4.589 eV)
    37      37       --         2.013 au  C             1.00      3 P:y             2
                        (      54.789 eV)
    38      38      0.667      -0.193 au  C             1.00      1 P:z             2
                        (      -5.239 eV)
    39      39       --         0.169 au  C             1.00      2 P:z             2
                        (       4.589 eV)
    40      40       --         2.013 au  C             1.00      3 P:z             2
                        (      54.789 eV)
    41      41       --         1.243 au  C             1.00      1 D:z2            2
                        (      33.824 eV)
    42      42       --         1.243 au  C             1.00      1 D:x2-y2         2
                        (      33.824 eV)
    43      43       --         1.243 au  C             1.00      1 D:xy            2
                        (      33.824 eV)
    44      44       --         1.243 au  C             1.00      1 D:xz            2
                        (      33.824 eV)
    45      45       --         1.243 au  C             1.00      1 D:yz            2
                        (      33.824 eV)
    46      46       --         4.016 au  C             1.00      1 F:z3            2
                        (     109.271 eV)
    47      47       --         4.016 au  C             1.00      1 F:z             2
                        (     109.271 eV)
    48      48       --         4.016 au  C             1.00      1 F:xyz           2
                        (     109.271 eV)
    49      49       --         4.016 au  C             1.00      1 F:z2x           2
                        (     109.271 eV)
    50      50       --         4.016 au  C             1.00      1 F:z2y           2
                        (     109.271 eV)
    51      51       --         4.016 au  C             1.00      1 F:x             2
                        (     109.271 eV)
    52      52       --         4.016 au  C             1.00      1 F:y             2
                        (     109.271 eV)
    53      53      2.000     -10.066 au  C             1.00      1 S               3
                        (    -273.921 eV)
    54      54      2.000      -0.501 au  C             1.00      2 S               3
                        (     -13.620 eV)
    55      55       --         0.373 au  C             1.00      3 S               3
                        (      10.158 eV)
    56      56       --         5.405 au  C             1.00      4 S               3
                        (     147.073 eV)
    57      57       --        49.848 au  C             1.00      5 S               3
                        (    1356.422 eV)
    58      58      0.667      -0.193 au  C             1.00      1 P:x             3
                        (      -5.239 eV)
    59      59       --         0.169 au  C             1.00      2 P:x             3
                        (       4.589 eV)
    60      60       --         2.013 au  C             1.00      3 P:x             3
                        (      54.789 eV)
    61      61      0.667      -0.193 au  C             1.00      1 P:y             3
                        (      -5.239 eV)
    62      62       --         0.169 au  C             1.00      2 P:y             3
                        (       4.589 eV)
    63      63       --         2.013 au  C             1.00      3 P:y             3
                        (      54.789 eV)
    64      64      0.667      -0.193 au  C             1.00      1 P:z             3
                        (      -5.239 eV)
    65      65       --         0.169 au  C             1.00      2 P:z             3
                        (       4.589 eV)
    66      66       --         2.013 au  C             1.00      3 P:z             3
                        (      54.789 eV)
    67      67       --         1.243 au  C             1.00      1 D:z2            3
                        (      33.824 eV)
    68      68       --         1.243 au  C             1.00      1 D:x2-y2         3
                        (      33.824 eV)
    69      69       --         1.243 au  C             1.00      1 D:xy            3
                        (      33.824 eV)
    70      70       --         1.243 au  C             1.00      1 D:xz            3
                        (      33.824 eV)
    71      71       --         1.243 au  C             1.00      1 D:yz            3
                        (      33.824 eV)
    72      72       --         4.016 au  C             1.00      1 F:z3            3
                        (     109.271 eV)
    73      73       --         4.016 au  C             1.00      1 F:z             3
                        (     109.271 eV)
    74      74       --         4.016 au  C             1.00      1 F:xyz           3
                        (     109.271 eV)
    75      75       --         4.016 au  C             1.00      1 F:z2x           3
                        (     109.271 eV)
    76      76       --         4.016 au  C             1.00      1 F:z2y           3
                        (     109.271 eV)
    77      77       --         4.016 au  C             1.00      1 F:x             3
                        (     109.271 eV)
    78      78       --         4.016 au  C             1.00      1 F:y             3
                        (     109.271 eV)
    79      79      2.000     -10.066 au  C             1.00      1 S               4
                        (    -273.921 eV)
    80      80      2.000      -0.501 au  C             1.00      2 S               4
                        (     -13.620 eV)
    81      81       --         0.373 au  C             1.00      3 S               4
                        (      10.158 eV)
    82      82       --         5.405 au  C             1.00      4 S               4
                        (     147.073 eV)
    83      83       --        49.848 au  C             1.00      5 S               4
                        (    1356.422 eV)
    84      84      0.667      -0.193 au  C             1.00      1 P:x             4
                        (      -5.239 eV)
    85      85       --         0.169 au  C             1.00      2 P:x             4
                        (       4.589 eV)
    86      86       --         2.013 au  C             1.00      3 P:x             4
                        (      54.789 eV)
    87      87      0.667      -0.193 au  C             1.00      1 P:y             4
                        (      -5.239 eV)
    88      88       --         0.169 au  C             1.00      2 P:y             4
                        (       4.589 eV)
    89      89       --         2.013 au  C             1.00      3 P:y             4
                        (      54.789 eV)
    90      90      0.667      -0.193 au  C             1.00      1 P:z             4
                        (      -5.239 eV)
    91      91       --         0.169 au  C             1.00      2 P:z             4
                        (       4.589 eV)
    92      92       --         2.013 au  C             1.00      3 P:z             4
                        (      54.789 eV)
    93      93       --         1.243 au  C             1.00      1 D:z2            4
                        (      33.824 eV)
    94      94       --         1.243 au  C             1.00      1 D:x2-y2         4
                        (      33.824 eV)
    95      95       --         1.243 au  C             1.00      1 D:xy            4
                        (      33.824 eV)
    96      96       --         1.243 au  C             1.00      1 D:xz            4
                        (      33.824 eV)
    97      97       --         1.243 au  C             1.00      1 D:yz            4
                        (      33.824 eV)
    98      98       --         4.016 au  C             1.00      1 F:z3            4
                        (     109.271 eV)
    99      99       --         4.016 au  C             1.00      1 F:z             4
                        (     109.271 eV)
   100     100       --         4.016 au  C             1.00      1 F:xyz           4
                        (     109.271 eV)
   101     101       --         4.016 au  C             1.00      1 F:z2x           4
                        (     109.271 eV)
   102     102       --         4.016 au  C             1.00      1 F:z2y           4
                        (     109.271 eV)
   103     103       --         4.016 au  C             1.00      1 F:x             4
                        (     109.271 eV)
   104     104       --         4.016 au  C             1.00      1 F:y             4
                        (     109.271 eV)
   105     105      2.000     -10.066 au  C             1.00      1 S               5
                        (    -273.921 eV)
   106     106      2.000      -0.501 au  C             1.00      2 S               5
                        (     -13.620 eV)
   107     107       --         0.373 au  C             1.00      3 S               5
                        (      10.158 eV)
   108     108       --         5.405 au  C             1.00      4 S               5
                        (     147.073 eV)
   109     109       --        49.848 au  C             1.00      5 S               5
                        (    1356.422 eV)
   110     110      0.667      -0.193 au  C             1.00      1 P:x             5
                        (      -5.239 eV)
   111     111       --         0.169 au  C             1.00      2 P:x             5
                        (       4.589 eV)
   112     112       --         2.013 au  C             1.00      3 P:x             5
                        (      54.789 eV)
   113     113      0.667      -0.193 au  C             1.00      1 P:y             5
                        (      -5.239 eV)
   114     114       --         0.169 au  C             1.00      2 P:y             5
                        (       4.589 eV)
   115     115       --         2.013 au  C             1.00      3 P:y             5
                        (      54.789 eV)
   116     116      0.667      -0.193 au  C             1.00      1 P:z             5
                        (      -5.239 eV)
   117     117       --         0.169 au  C             1.00      2 P:z             5
                        (       4.589 eV)
   118     118       --         2.013 au  C             1.00      3 P:z             5
                        (      54.789 eV)
   119     119       --         1.243 au  C             1.00      1 D:z2            5
                        (      33.824 eV)
   120     120       --         1.243 au  C             1.00      1 D:x2-y2         5
                        (      33.824 eV)
   121     121       --         1.243 au  C             1.00      1 D:xy            5
                        (      33.824 eV)
   122     122       --         1.243 au  C             1.00      1 D:xz            5
                        (      33.824 eV)
   123     123       --         1.243 au  C             1.00      1 D:yz            5
                        (      33.824 eV)
   124     124       --         4.016 au  C             1.00      1 F:z3            5
                        (     109.271 eV)
   125     125       --         4.016 au  C             1.00      1 F:z             5
                        (     109.271 eV)
   126     126       --         4.016 au  C             1.00      1 F:xyz           5
                        (     109.271 eV)
   127     127       --         4.016 au  C             1.00      1 F:z2x           5
                        (     109.271 eV)
   128     128       --         4.016 au  C             1.00      1 F:z2y           5
                        (     109.271 eV)
   129     129       --         4.016 au  C             1.00      1 F:x             5
                        (     109.271 eV)
   130     130       --         4.016 au  C             1.00      1 F:y             5
                        (     109.271 eV)
   131     131      2.000     -10.066 au  C             1.00      1 S               6
                        (    -273.921 eV)
   132     132      2.000      -0.501 au  C             1.00      2 S               6
                        (     -13.620 eV)
   133     133       --         0.373 au  C             1.00      3 S               6
                        (      10.158 eV)
   134     134       --         5.405 au  C             1.00      4 S               6
                        (     147.073 eV)
   135     135       --        49.848 au  C             1.00      5 S               6
                        (    1356.422 eV)
   136     136      0.667      -0.193 au  C             1.00      1 P:x             6
                        (      -5.239 eV)
   137     137       --         0.169 au  C             1.00      2 P:x             6
                        (       4.589 eV)
   138     138       --         2.013 au  C             1.00      3 P:x             6
                        (      54.789 eV)
   139     139      0.667      -0.193 au  C             1.00      1 P:y             6
                        (      -5.239 eV)
   140     140       --         0.169 au  C             1.00      2 P:y             6
                        (       4.589 eV)
   141     141       --         2.013 au  C             1.00      3 P:y             6
                        (      54.789 eV)
   142     142      0.667      -0.193 au  C             1.00      1 P:z             6
                        (      -5.239 eV)
   143     143       --         0.169 au  C             1.00      2 P:z             6
                        (       4.589 eV)
   144     144       --         2.013 au  C             1.00      3 P:z             6
                        (      54.789 eV)
   145     145       --         1.243 au  C             1.00      1 D:z2            6
                        (      33.824 eV)
   146     146       --         1.243 au  C             1.00      1 D:x2-y2         6
                        (      33.824 eV)
   147     147       --         1.243 au  C             1.00      1 D:xy            6
                        (      33.824 eV)
   148     148       --         1.243 au  C             1.00      1 D:xz            6
                        (      33.824 eV)
   149     149       --         1.243 au  C             1.00      1 D:yz            6
                        (      33.824 eV)
   150     150       --         4.016 au  C             1.00      1 F:z3            6
                        (     109.271 eV)
   151     151       --         4.016 au  C             1.00      1 F:z             6
                        (     109.271 eV)
   152     152       --         4.016 au  C             1.00      1 F:xyz           6
                        (     109.271 eV)
   153     153       --         4.016 au  C             1.00      1 F:z2x           6
                        (     109.271 eV)
   154     154       --         4.016 au  C             1.00      1 F:z2y           6
                        (     109.271 eV)
   155     155       --         4.016 au  C             1.00      1 F:x             6
                        (     109.271 eV)
   156     156       --         4.016 au  C             1.00      1 F:y             6
                        (     109.271 eV)
   157     157      2.000     -10.066 au  C             1.00      1 S               7
                        (    -273.921 eV)
   158     158      2.000      -0.501 au  C             1.00      2 S               7
                        (     -13.620 eV)
   159     159       --         0.373 au  C             1.00      3 S               7
                        (      10.158 eV)
   160     160       --         5.405 au  C             1.00      4 S               7
                        (     147.073 eV)
   161     161       --        49.848 au  C             1.00      5 S               7
                        (    1356.422 eV)
   162     162      0.667      -0.193 au  C             1.00      1 P:x             7
                        (      -5.239 eV)
   163     163       --         0.169 au  C             1.00      2 P:x             7
                        (       4.589 eV)
   164     164       --         2.013 au  C             1.00      3 P:x             7
                        (      54.789 eV)
   165     165      0.667      -0.193 au  C             1.00      1 P:y             7
                        (      -5.239 eV)
   166     166       --         0.169 au  C             1.00      2 P:y             7
                        (       4.589 eV)
   167     167       --         2.013 au  C             1.00      3 P:y             7
                        (      54.789 eV)
   168     168      0.667      -0.193 au  C             1.00      1 P:z             7
                        (      -5.239 eV)
   169     169       --         0.169 au  C             1.00      2 P:z             7
                        (       4.589 eV)
   170     170       --         2.013 au  C             1.00      3 P:z             7
                        (      54.789 eV)
   171     171       --         1.243 au  C             1.00      1 D:z2            7
                        (      33.824 eV)
   172     172       --         1.243 au  C             1.00      1 D:x2-y2         7
                        (      33.824 eV)
   173     173       --         1.243 au  C             1.00      1 D:xy            7
                        (      33.824 eV)
   174     174       --         1.243 au  C             1.00      1 D:xz            7
                        (      33.824 eV)
   175     175       --         1.243 au  C             1.00      1 D:yz            7
                        (      33.824 eV)
   176     176       --         4.016 au  C             1.00      1 F:z3            7
                        (     109.271 eV)
   177     177       --         4.016 au  C             1.00      1 F:z             7
                        (     109.271 eV)
   178     178       --         4.016 au  C             1.00      1 F:xyz           7
                        (     109.271 eV)
   179     179       --         4.016 au  C             1.00      1 F:z2x           7
                        (     109.271 eV)
   180     180       --         4.016 au  C             1.00      1 F:z2y           7
                        (     109.271 eV)
   181     181       --         4.016 au  C             1.00      1 F:x             7
                        (     109.271 eV)
   182     182       --         4.016 au  C             1.00      1 F:y             7
                        (     109.271 eV)
   183     183      2.000     -10.066 au  C             1.00      1 S               8
                        (    -273.921 eV)
   184     184      2.000      -0.501 au  C             1.00      2 S               8
                        (     -13.620 eV)
   185     185       --         0.373 au  C             1.00      3 S               8
                        (      10.158 eV)
   186     186       --         5.405 au  C             1.00      4 S               8
                        (     147.073 eV)
   187     187       --        49.848 au  C             1.00      5 S               8
                        (    1356.422 eV)
   188     188      0.667      -0.193 au  C             1.00      1 P:x             8
                        (      -5.239 eV)
   189     189       --         0.169 au  C             1.00      2 P:x             8
                        (       4.589 eV)
   190     190       --         2.013 au  C             1.00      3 P:x             8
                        (      54.789 eV)
   191     191      0.667      -0.193 au  C             1.00      1 P:y             8
                        (      -5.239 eV)
   192     192       --         0.169 au  C             1.00      2 P:y             8
                        (       4.589 eV)
   193     193       --         2.013 au  C             1.00      3 P:y             8
                        (      54.789 eV)
   194     194      0.667      -0.193 au  C             1.00      1 P:z             8
                        (      -5.239 eV)
   195     195       --         0.169 au  C             1.00      2 P:z             8
                        (       4.589 eV)
   196     196       --         2.013 au  C             1.00      3 P:z             8
                        (      54.789 eV)
   197     197       --         1.243 au  C             1.00      1 D:z2            8
                        (      33.824 eV)
   198     198       --         1.243 au  C             1.00      1 D:x2-y2         8
                        (      33.824 eV)
   199     199       --         1.243 au  C             1.00      1 D:xy            8
                        (      33.824 eV)
   200     200       --         1.243 au  C             1.00      1 D:xz            8
                        (      33.824 eV)
   201     201       --         1.243 au  C             1.00      1 D:yz            8
                        (      33.824 eV)
   202     202       --         4.016 au  C             1.00      1 F:z3            8
                        (     109.271 eV)
   203     203       --         4.016 au  C             1.00      1 F:z             8
                        (     109.271 eV)
   204     204       --         4.016 au  C             1.00      1 F:xyz           8
                        (     109.271 eV)
   205     205       --         4.016 au  C             1.00      1 F:z2x           8
                        (     109.271 eV)
   206     206       --         4.016 au  C             1.00      1 F:z2y           8
                        (     109.271 eV)
   207     207       --         4.016 au  C             1.00      1 F:x             8
                        (     109.271 eV)
   208     208       --         4.016 au  C             1.00      1 F:y             8
                        (     109.271 eV)
   209     209      2.000     -18.941 au  O             1.00      1 S               9
                        (    -515.403 eV)
   210     210      2.000      -0.876 au  O             1.00      2 S               9
                        (     -23.838 eV)
   211     211       --         0.791 au  O             1.00      3 S               9
                        (      21.524 eV)
   212     212       --        13.422 au  O             1.00      4 S               9
                        (     365.226 eV)
   213     213       --       121.561 au  O             1.00      5 S               9
                        (    3307.838 eV)
   214     214      1.333      -0.331 au  O             1.00      1 P:x             9
                        (      -9.020 eV)
   215     215       --         0.347 au  O             1.00      2 P:x             9
                        (       9.437 eV)
   216     216       --         3.820 au  O             1.00      3 P:x             9
                        (     103.939 eV)
   217     217      1.333      -0.331 au  O             1.00      1 P:y             9
                        (      -9.020 eV)
   218     218       --         0.347 au  O             1.00      2 P:y             9
                        (       9.437 eV)
   219     219       --         3.820 au  O             1.00      3 P:y             9
                        (     103.939 eV)
   220     220      1.333      -0.331 au  O             1.00      1 P:z             9
                        (      -9.020 eV)
   221     221       --         0.347 au  O             1.00      2 P:z             9
                        (       9.437 eV)
   222     222       --         3.820 au  O             1.00      3 P:z             9
                        (     103.939 eV)
   223     223       --         1.071 au  O             1.00      1 D:z2            9
                        (      29.134 eV)
   224     224       --         1.071 au  O             1.00      1 D:x2-y2         9
                        (      29.134 eV)
   225     225       --         1.071 au  O             1.00      1 D:xy            9
                        (      29.134 eV)
   226     226       --         1.071 au  O             1.00      1 D:xz            9
                        (      29.134 eV)
   227     227       --         1.071 au  O             1.00      1 D:yz            9
                        (      29.134 eV)
   228     228       --         3.359 au  O             1.00      1 F:z3            9
                        (      91.410 eV)
   229     229       --         3.359 au  O             1.00      1 F:z             9
                        (      91.410 eV)
   230     230       --         3.359 au  O             1.00      1 F:xyz           9
                        (      91.410 eV)
   231     231       --         3.359 au  O             1.00      1 F:z2x           9
                        (      91.410 eV)
   232     232       --         3.359 au  O             1.00      1 F:z2y           9
                        (      91.410 eV)
   233     233       --         3.359 au  O             1.00      1 F:x             9
                        (      91.410 eV)
   234     234       --         3.359 au  O             1.00      1 F:y             9
                        (      91.410 eV)
   235     235      2.000     -18.941 au  O             1.00      1 S              10
                        (    -515.403 eV)
   236     236      2.000      -0.876 au  O             1.00      2 S              10
                        (     -23.838 eV)
   237     237       --         0.791 au  O             1.00      3 S              10
                        (      21.524 eV)
   238     238       --        13.422 au  O             1.00      4 S              10
                        (     365.226 eV)
   239     239       --       121.561 au  O             1.00      5 S              10
                        (    3307.838 eV)
   240     240      1.333      -0.331 au  O             1.00      1 P:x            10
                        (      -9.020 eV)
   241     241       --         0.347 au  O             1.00      2 P:x            10
                        (       9.437 eV)
   242     242       --         3.820 au  O             1.00      3 P:x            10
                        (     103.939 eV)
   243     243      1.333      -0.331 au  O             1.00      1 P:y            10
                        (      -9.020 eV)
   244     244       --         0.347 au  O             1.00      2 P:y            10
                        (       9.437 eV)
   245     245       --         3.820 au  O             1.00      3 P:y            10
                        (     103.939 eV)
   246     246      1.333      -0.331 au  O             1.00      1 P:z            10
                        (      -9.020 eV)
   247     247       --         0.347 au  O             1.00      2 P:z            10
                        (       9.437 eV)
   248     248       --         3.820 au  O             1.00      3 P:z            10
                        (     103.939 eV)
   249     249       --         1.071 au  O             1.00      1 D:z2           10
                        (      29.134 eV)
   250     250       --         1.071 au  O             1.00      1 D:x2-y2        10
                        (      29.134 eV)
   251     251       --         1.071 au  O             1.00      1 D:xy           10
                        (      29.134 eV)
   252     252       --         1.071 au  O             1.00      1 D:xz           10
                        (      29.134 eV)
   253     253       --         1.071 au  O             1.00      1 D:yz           10
                        (      29.134 eV)
   254     254       --         3.359 au  O             1.00      1 F:z3           10
                        (      91.410 eV)
   255     255       --         3.359 au  O             1.00      1 F:z            10
                        (      91.410 eV)
   256     256       --         3.359 au  O             1.00      1 F:xyz          10
                        (      91.410 eV)
   257     257       --         3.359 au  O             1.00      1 F:z2x          10
                        (      91.410 eV)
   258     258       --         3.359 au  O             1.00      1 F:z2y          10
                        (      91.410 eV)
   259     259       --         3.359 au  O             1.00      1 F:x            10
                        (      91.410 eV)
   260     260       --         3.359 au  O             1.00      1 F:y            10
                        (      91.410 eV)
   261     261      2.000     -14.160 au  N             1.00      1 S              11
                        (    -385.319 eV)
   262     262      2.000      -0.678 au  N             1.00      2 S              11
                        (     -18.450 eV)
   263     263       --         0.517 au  N             1.00      3 S              11
                        (      14.073 eV)
   264     264       --         6.872 au  N             1.00      4 S              11
                        (     186.990 eV)
   265     265       --        63.432 au  N             1.00      5 S              11
                        (    1726.082 eV)
   266     266      1.000      -0.260 au  N             1.00      1 P:x            11
                        (      -7.062 eV)
   267     267       --         0.281 au  N             1.00      2 P:x            11
                        (       7.649 eV)
   268     268       --         3.275 au  N             1.00      3 P:x            11
                        (      89.105 eV)
   269     269      1.000      -0.260 au  N             1.00      1 P:y            11
                        (      -7.062 eV)
   270     270       --         0.281 au  N             1.00      2 P:y            11
                        (       7.649 eV)
   271     271       --         3.275 au  N             1.00      3 P:y            11
                        (      89.105 eV)
   272     272      1.000      -0.260 au  N             1.00      1 P:z            11
                        (      -7.062 eV)
   273     273       --         0.281 au  N             1.00      2 P:z            11
                        (       7.649 eV)
   274     274       --         3.275 au  N             1.00      3 P:z            11
                        (      89.105 eV)
   275     275       --         1.250 au  N             1.00      1 D:z2           11
                        (      34.005 eV)
   276     276       --         1.250 au  N             1.00      1 D:x2-y2        11
                        (      34.005 eV)
   277     277       --         1.250 au  N             1.00      1 D:xy           11
                        (      34.005 eV)
   278     278       --         1.250 au  N             1.00      1 D:xz           11
                        (      34.005 eV)
   279     279       --         1.250 au  N             1.00      1 D:yz           11
                        (      34.005 eV)
   280     280       --         4.013 au  N             1.00      1 F:z3           11
                        (     109.190 eV)
   281     281       --         4.013 au  N             1.00      1 F:z            11
                        (     109.190 eV)
   282     282       --         4.013 au  N             1.00      1 F:xyz          11
                        (     109.190 eV)
   283     283       --         4.013 au  N             1.00      1 F:z2x          11
                        (     109.190 eV)
   284     284       --         4.013 au  N             1.00      1 F:z2y          11
                        (     109.190 eV)
   285     285       --         4.013 au  N             1.00      1 F:x            11
                        (     109.190 eV)
   286     286       --         4.013 au  N             1.00      1 F:y            11
                        (     109.190 eV)
   287     287      2.000     -14.160 au  N             1.00      1 S              12
                        (    -385.319 eV)
   288     288      2.000      -0.678 au  N             1.00      2 S              12
                        (     -18.450 eV)
   289     289       --         0.517 au  N             1.00      3 S              12
                        (      14.073 eV)
   290     290       --         6.872 au  N             1.00      4 S              12
                        (     186.990 eV)
   291     291       --        63.432 au  N             1.00      5 S              12
                        (    1726.082 eV)
   292     292      1.000      -0.260 au  N             1.00      1 P:x            12
                        (      -7.062 eV)
   293     293       --         0.281 au  N             1.00      2 P:x            12
                        (       7.649 eV)
   294     294       --         3.275 au  N             1.00      3 P:x            12
                        (      89.105 eV)
   295     295      1.000      -0.260 au  N             1.00      1 P:y            12
                        (      -7.062 eV)
   296     296       --         0.281 au  N             1.00      2 P:y            12
                        (       7.649 eV)
   297     297       --         3.275 au  N             1.00      3 P:y            12
                        (      89.105 eV)
   298     298      1.000      -0.260 au  N             1.00      1 P:z            12
                        (      -7.062 eV)
   299     299       --         0.281 au  N             1.00      2 P:z            12
                        (       7.649 eV)
   300     300       --         3.275 au  N             1.00      3 P:z            12
                        (      89.105 eV)
   301     301       --         1.250 au  N             1.00      1 D:z2           12
                        (      34.005 eV)
   302     302       --         1.250 au  N             1.00      1 D:x2-y2        12
                        (      34.005 eV)
   303     303       --         1.250 au  N             1.00      1 D:xy           12
                        (      34.005 eV)
   304     304       --         1.250 au  N             1.00      1 D:xz           12
                        (      34.005 eV)
   305     305       --         1.250 au  N             1.00      1 D:yz           12
                        (      34.005 eV)
   306     306       --         4.013 au  N             1.00      1 F:z3           12
                        (     109.190 eV)
   307     307       --         4.013 au  N             1.00      1 F:z            12
                        (     109.190 eV)
   308     308       --         4.013 au  N             1.00      1 F:xyz          12
                        (     109.190 eV)
   309     309       --         4.013 au  N             1.00      1 F:z2x          12
                        (     109.190 eV)
   310     310       --         4.013 au  N             1.00      1 F:z2y          12
                        (     109.190 eV)
   311     311       --         4.013 au  N             1.00      1 F:x            12
                        (     109.190 eV)
   312     312       --         4.013 au  N             1.00      1 F:y            12
                        (     109.190 eV)
   313     313      2.000     -14.160 au  N             1.00      1 S              13
                        (    -385.319 eV)
   314     314      2.000      -0.678 au  N             1.00      2 S              13
                        (     -18.450 eV)
   315     315       --         0.517 au  N             1.00      3 S              13
                        (      14.073 eV)
   316     316       --         6.872 au  N             1.00      4 S              13
                        (     186.990 eV)
   317     317       --        63.432 au  N             1.00      5 S              13
                        (    1726.082 eV)
   318     318      1.000      -0.260 au  N             1.00      1 P:x            13
                        (      -7.062 eV)
   319     319       --         0.281 au  N             1.00      2 P:x            13
                        (       7.649 eV)
   320     320       --         3.275 au  N             1.00      3 P:x            13
                        (      89.105 eV)
   321     321      1.000      -0.260 au  N             1.00      1 P:y            13
                        (      -7.062 eV)
   322     322       --         0.281 au  N             1.00      2 P:y            13
                        (       7.649 eV)
   323     323       --         3.275 au  N             1.00      3 P:y            13
                        (      89.105 eV)
   324     324      1.000      -0.260 au  N             1.00      1 P:z            13
                        (      -7.062 eV)
   325     325       --         0.281 au  N             1.00      2 P:z            13
                        (       7.649 eV)
   326     326       --         3.275 au  N             1.00      3 P:z            13
                        (      89.105 eV)
   327     327       --         1.250 au  N             1.00      1 D:z2           13
                        (      34.005 eV)
   328     328       --         1.250 au  N             1.00      1 D:x2-y2        13
                        (      34.005 eV)
   329     329       --         1.250 au  N             1.00      1 D:xy           13
                        (      34.005 eV)
   330     330       --         1.250 au  N             1.00      1 D:xz           13
                        (      34.005 eV)
   331     331       --         1.250 au  N             1.00      1 D:yz           13
                        (      34.005 eV)
   332     332       --         4.013 au  N             1.00      1 F:z3           13
                        (     109.190 eV)
   333     333       --         4.013 au  N             1.00      1 F:z            13
                        (     109.190 eV)
   334     334       --         4.013 au  N             1.00      1 F:xyz          13
                        (     109.190 eV)
   335     335       --         4.013 au  N             1.00      1 F:z2x          13
                        (     109.190 eV)
   336     336       --         4.013 au  N             1.00      1 F:z2y          13
                        (     109.190 eV)
   337     337       --         4.013 au  N             1.00      1 F:x            13
                        (     109.190 eV)
   338     338       --         4.013 au  N             1.00      1 F:y            13
                        (     109.190 eV)
   339     339      1.000      -0.240 au  H             1.00      1 S              14
                        (      -6.532 eV)
   340     340       --         0.088 au  H             1.00      2 S              14
                        (       2.394 eV)
   341     341       --         1.502 au  H             1.00      3 S              14
                        (      40.869 eV)
   342     342       --         0.406 au  H             1.00      1 P:x            14
                        (      11.051 eV)
   343     343       --         0.406 au  H             1.00      1 P:y            14
                        (      11.051 eV)
   344     344       --         0.406 au  H             1.00      1 P:z            14
                        (      11.051 eV)
   345     345       --         2.569 au  H             1.00      1 D:z2           14
                        (      69.917 eV)
   346     346       --         2.569 au  H             1.00      1 D:x2-y2        14
                        (      69.917 eV)
   347     347       --         2.569 au  H             1.00      1 D:xy           14
                        (      69.917 eV)
   348     348       --         2.569 au  H             1.00      1 D:xz           14
                        (      69.917 eV)
   349     349       --         2.569 au  H             1.00      1 D:yz           14
                        (      69.917 eV)
   350     350      1.000      -0.240 au  H             1.00      1 S              15
                        (      -6.532 eV)
   351     351       --         0.088 au  H             1.00      2 S              15
                        (       2.394 eV)
   352     352       --         1.502 au  H             1.00      3 S              15
                        (      40.869 eV)
   353     353       --         0.406 au  H             1.00      1 P:x            15
                        (      11.051 eV)
   354     354       --         0.406 au  H             1.00      1 P:y            15
                        (      11.051 eV)
   355     355       --         0.406 au  H             1.00      1 P:z            15
                        (      11.051 eV)
   356     356       --         2.569 au  H             1.00      1 D:z2           15
                        (      69.917 eV)
   357     357       --         2.569 au  H             1.00      1 D:x2-y2        15
                        (      69.917 eV)
   358     358       --         2.569 au  H             1.00      1 D:xy           15
                        (      69.917 eV)
   359     359       --         2.569 au  H             1.00      1 D:xz           15
                        (      69.917 eV)
   360     360       --         2.569 au  H             1.00      1 D:yz           15
                        (      69.917 eV)
   361     361      1.000      -0.240 au  H             1.00      1 S              16
                        (      -6.532 eV)
   362     362       --         0.088 au  H             1.00      2 S              16
                        (       2.394 eV)
   363     363       --         1.502 au  H             1.00      3 S              16
                        (      40.869 eV)
   364     364       --         0.406 au  H             1.00      1 P:x            16
                        (      11.051 eV)
   365     365       --         0.406 au  H             1.00      1 P:y            16
                        (      11.051 eV)
   366     366       --         0.406 au  H             1.00      1 P:z            16
                        (      11.051 eV)
   367     367       --         2.569 au  H             1.00      1 D:z2           16
                        (      69.917 eV)
   368     368       --         2.569 au  H             1.00      1 D:x2-y2        16
                        (      69.917 eV)
   369     369       --         2.569 au  H             1.00      1 D:xy           16
                        (      69.917 eV)
   370     370       --         2.569 au  H             1.00      1 D:xz           16
                        (      69.917 eV)
   371     371       --         2.569 au  H             1.00      1 D:yz           16
                        (      69.917 eV)
   372     372      1.000      -0.240 au  H             1.00      1 S              17
                        (      -6.532 eV)
   373     373       --         0.088 au  H             1.00      2 S              17
                        (       2.394 eV)
   374     374       --         1.502 au  H             1.00      3 S              17
                        (      40.869 eV)
   375     375       --         0.406 au  H             1.00      1 P:x            17
                        (      11.051 eV)
   376     376       --         0.406 au  H             1.00      1 P:y            17
                        (      11.051 eV)
   377     377       --         0.406 au  H             1.00      1 P:z            17
                        (      11.051 eV)
   378     378       --         2.569 au  H             1.00      1 D:z2           17
                        (      69.917 eV)
   379     379       --         2.569 au  H             1.00      1 D:x2-y2        17
                        (      69.917 eV)
   380     380       --         2.569 au  H             1.00      1 D:xy           17
                        (      69.917 eV)
   381     381       --         2.569 au  H             1.00      1 D:xz           17
                        (      69.917 eV)
   382     382       --         2.569 au  H             1.00      1 D:yz           17
                        (      69.917 eV)
   383     383      1.000      -0.240 au  H             1.00      1 S              18
                        (      -6.532 eV)
   384     384       --         0.088 au  H             1.00      2 S              18
                        (       2.394 eV)
   385     385       --         1.502 au  H             1.00      3 S              18
                        (      40.869 eV)
   386     386       --         0.406 au  H             1.00      1 P:x            18
                        (      11.051 eV)
   387     387       --         0.406 au  H             1.00      1 P:y            18
                        (      11.051 eV)
   388     388       --         0.406 au  H             1.00      1 P:z            18
                        (      11.051 eV)
   389     389       --         2.569 au  H             1.00      1 D:z2           18
                        (      69.917 eV)
   390     390       --         2.569 au  H             1.00      1 D:x2-y2        18
                        (      69.917 eV)
   391     391       --         2.569 au  H             1.00      1 D:xy           18
                        (      69.917 eV)
   392     392       --         2.569 au  H             1.00      1 D:xz           18
                        (      69.917 eV)
   393     393       --         2.569 au  H             1.00      1 D:yz           18
                        (      69.917 eV)
   394     394      1.000      -0.240 au  H             1.00      1 S              19
                        (      -6.532 eV)
   395     395       --         0.088 au  H             1.00      2 S              19
                        (       2.394 eV)
   396     396       --         1.502 au  H             1.00      3 S              19
                        (      40.869 eV)
   397     397       --         0.406 au  H             1.00      1 P:x            19
                        (      11.051 eV)
   398     398       --         0.406 au  H             1.00      1 P:y            19
                        (      11.051 eV)
   399     399       --         0.406 au  H             1.00      1 P:z            19
                        (      11.051 eV)
   400     400       --         2.569 au  H             1.00      1 D:z2           19
                        (      69.917 eV)
   401     401       --         2.569 au  H             1.00      1 D:x2-y2        19
                        (      69.917 eV)
   402     402       --         2.569 au  H             1.00      1 D:xy           19
                        (      69.917 eV)
   403     403       --         2.569 au  H             1.00      1 D:xz           19
                        (      69.917 eV)
   404     404       --         2.569 au  H             1.00      1 D:yz           19
                        (      69.917 eV)
   405     405      1.000      -0.240 au  H             1.00      1 S              20
                        (      -6.532 eV)
   406     406       --         0.088 au  H             1.00      2 S              20
                        (       2.394 eV)
   407     407       --         1.502 au  H             1.00      3 S              20
                        (      40.869 eV)
   408     408       --         0.406 au  H             1.00      1 P:x            20
                        (      11.051 eV)
   409     409       --         0.406 au  H             1.00      1 P:y            20
                        (      11.051 eV)
   410     410       --         0.406 au  H             1.00      1 P:z            20
                        (      11.051 eV)
   411     411       --         2.569 au  H             1.00      1 D:z2           20
                        (      69.917 eV)
   412     412       --         2.569 au  H             1.00      1 D:x2-y2        20
                        (      69.917 eV)
   413     413       --         2.569 au  H             1.00      1 D:xy           20
                        (      69.917 eV)
   414     414       --         2.569 au  H             1.00      1 D:xz           20
                        (      69.917 eV)
   415     415       --         2.569 au  H             1.00      1 D:yz           20
                        (      69.917 eV)
   416     416      1.000      -0.240 au  H             1.00      1 S              21
                        (      -6.532 eV)
   417     417       --         0.088 au  H             1.00      2 S              21
                        (       2.394 eV)
   418     418       --         1.502 au  H             1.00      3 S              21
                        (      40.869 eV)
   419     419       --         0.406 au  H             1.00      1 P:x            21
                        (      11.051 eV)
   420     420       --         0.406 au  H             1.00      1 P:y            21
                        (      11.051 eV)
   421     421       --         0.406 au  H             1.00      1 P:z            21
                        (      11.051 eV)
   422     422       --         2.569 au  H             1.00      1 D:z2           21
                        (      69.917 eV)
   423     423       --         2.569 au  H             1.00      1 D:x2-y2        21
                        (      69.917 eV)
   424     424       --         2.569 au  H             1.00      1 D:xy           21
                        (      69.917 eV)
   425     425       --         2.569 au  H             1.00      1 D:xz           21
                        (      69.917 eV)
   426     426       --         2.569 au  H             1.00      1 D:yz           21
                        (      69.917 eV)
   427     427      1.000      -0.240 au  H             1.00      1 S              22
                        (      -6.532 eV)
   428     428       --         0.088 au  H             1.00      2 S              22
                        (       2.394 eV)
   429     429       --         1.502 au  H             1.00      3 S              22
                        (      40.869 eV)
   430     430       --         0.406 au  H             1.00      1 P:x            22
                        (      11.051 eV)
   431     431       --         0.406 au  H             1.00      1 P:y            22
                        (      11.051 eV)
   432     432       --         0.406 au  H             1.00      1 P:z            22
                        (      11.051 eV)
   433     433       --         2.569 au  H             1.00      1 D:z2           22
                        (      69.917 eV)
   434     434       --         2.569 au  H             1.00      1 D:x2-y2        22
                        (      69.917 eV)
   435     435       --         2.569 au  H             1.00      1 D:xy           22
                        (      69.917 eV)
   436     436       --         2.569 au  H             1.00      1 D:xz           22
                        (      69.917 eV)
   437     437       --         2.569 au  H             1.00      1 D:yz           22
                        (      69.917 eV)



 ================================
 (Slater-type)  F U N C T I O N S  ***  (Basis and Fit)  ***
 ================================
  

 Atom Type    1  (C)
 ==============

 Valence Basis Sets:  10
 -----------------------
   1 S    7.680000
   1 S    5.000000
   2 S    1.280000
   2 S    2.100000
   2 S    4.600000
   2 P    0.820000
   2 P    1.480000
   2 P    2.940000
   3 D    2.200000
   4 F    3.300000

 Atom Type    2  (O)
 ==============

 Valence Basis Sets:  10
 -----------------------
   1 S    9.800000
   1 S    6.800000
   2 S    7.580000
   2 S    2.880000
   2 S    1.720000
   2 P    4.080000
   2 P    2.080000
   2 P    1.120000
   3 D    2.000000
   4 F    3.000000

 Atom Type    3  (N)
 ==============

 Valence Basis Sets:  10
 -----------------------
   1 S    8.740000
   1 S    5.900000
   2 S    5.150000
   2 S    2.500000
   2 S    1.500000
   2 P    3.680000
   2 P    1.880000
   2 P    1.000000
   3 D    2.200000
   4 F    3.300000

 Atom Type    4  (H)
 ==============

 Valence Basis Sets:   5
 -----------------------
   1 S    0.690000
   1 S    0.920000
   1 S    1.580000
   2 P    1.250000
   3 D    2.500000


 BAS: List of all Elementary Cartesian Basis Functions
 =====================================================

 The numbering in the list below (to the right of the function characteristics) is referred
 to in print-outs of MO eigenvectors and Mulliken populations in the BAS representation
 (as contrasted to the SFO representation).

 Notes:
 1. The functions are characterized by a polynomial prefactor (powers of x,y,z and r) and
    an exponential decay factor alpha.
 2. Since the basis sets are specific for an atom TYPE, the individual functions occur on
    all atoms of that type.
 3. The word 'Core' in the left margin signals that it is a Core Function (CF) : not a
    degree of freedom in the valence set, but only used to ensure orthogonalization of
    the other valence basis functions on the frozen Core Orbitals.


 (power of) X  Y  Z  R     Alpha  on Atom
            ==========     =====     ==========

 C                                    1    2    3    4    5    6    7    8
                                  ---------------------------------------------------------------------------
            0  0  0  0     7.680      1   31   61   91  121  151  181  211
            0  0  0  0     5.000      2   32   62   92  122  152  182  212
            0  0  0  1     1.280      3   33   63   93  123  153  183  213
            0  0  0  1     2.100      4   34   64   94  124  154  184  214
            0  0  0  1     4.600      5   35   65   95  125  155  185  215
            1  0  0  0     0.820      6   36   66   96  126  156  186  216
            0  1  0  0     0.820      7   37   67   97  127  157  187  217
            0  0  1  0     0.820      8   38   68   98  128  158  188  218
            1  0  0  0     1.480      9   39   69   99  129  159  189  219
            0  1  0  0     1.480     10   40   70  100  130  160  190  220
            0  0  1  0     1.480     11   41   71  101  131  161  191  221
            1  0  0  0     2.940     12   42   72  102  132  162  192  222
            0  1  0  0     2.940     13   43   73  103  133  163  193  223
            0  0  1  0     2.940     14   44   74  104  134  164  194  224
            2  0  0  0     2.200     15   45   75  105  135  165  195  225
            1  1  0  0     2.200     16   46   76  106  136  166  196  226
            1  0  1  0     2.200     17   47   77  107  137  167  197  227
            0  2  0  0     2.200     18   48   78  108  138  168  198  228
            0  1  1  0     2.200     19   49   79  109  139  169  199  229
            0  0  2  0     2.200     20   50   80  110  140  170  200  230
            3  0  0  0     3.300     21   51   81  111  141  171  201  231
            2  1  0  0     3.300     22   52   82  112  142  172  202  232
            2  0  1  0     3.300     23   53   83  113  143  173  203  233
            1  2  0  0     3.300     24   54   84  114  144  174  204  234
            1  1  1  0     3.300     25   55   85  115  145  175  205  235
            1  0  2  0     3.300     26   56   86  116  146  176  206  236
            0  3  0  0     3.300     27   57   87  117  147  177  207  237
            0  2  1  0     3.300     28   58   88  118  148  178  208  238
            0  1  2  0     3.300     29   59   89  119  149  179  209  239
            0  0  3  0     3.300     30   60   90  120  150  180  210  240

 O                                    9   10
                                  ---------------------------------------------------------------------------
            0  0  0  0     9.800    241  271
            0  0  0  0     6.800    242  272
            0  0  0  1     7.580    243  273
            0  0  0  1     2.880    244  274
            0  0  0  1     1.720    245  275
            1  0  0  0     4.080    246  276
            0  1  0  0     4.080    247  277
            0  0  1  0     4.080    248  278
            1  0  0  0     2.080    249  279
            0  1  0  0     2.080    250  280
            0  0  1  0     2.080    251  281
            1  0  0  0     1.120    252  282
            0  1  0  0     1.120    253  283
            0  0  1  0     1.120    254  284
            2  0  0  0     2.000    255  285
            1  1  0  0     2.000    256  286
            1  0  1  0     2.000    257  287
            0  2  0  0     2.000    258  288
            0  1  1  0     2.000    259  289
            0  0  2  0     2.000    260  290
            3  0  0  0     3.000    261  291
            2  1  0  0     3.000    262  292
            2  0  1  0     3.000    263  293
            1  2  0  0     3.000    264  294
            1  1  1  0     3.000    265  295
            1  0  2  0     3.000    266  296
            0  3  0  0     3.000    267  297
            0  2  1  0     3.000    268  298
            0  1  2  0     3.000    269  299
            0  0  3  0     3.000    270  300

 N                                   11   12   13
                                  ---------------------------------------------------------------------------
            0  0  0  0     8.740    301  331  361
            0  0  0  0     5.900    302  332  362
            0  0  0  1     5.150    303  333  363
            0  0  0  1     2.500    304  334  364
            0  0  0  1     1.500    305  335  365
            1  0  0  0     3.680    306  336  366
            0  1  0  0     3.680    307  337  367
            0  0  1  0     3.680    308  338  368
            1  0  0  0     1.880    309  339  369
            0  1  0  0     1.880    310  340  370
            0  0  1  0     1.880    311  341  371
[...]
                                   10.06%     1 S              -6.532  1.00    15 H
                                    7.94%     1 P:z            -5.239  0.67     1 C
                                    5.39%     2 S               2.394  0.00    15 H
                                    3.40%     3 S              40.869  0.00    16 H
                                    2.22%     1 S              -6.532  1.00    17 H
                                   -2.15%     2 P:x             4.589  0.00     1 C
                                    1.05%     3 S              40.869  0.00    14 H
                                    1.01%     2 P:z             4.589  0.00     2 C
       1.488  0.00    59 A         34.34%     1 S              -6.532  1.00    15 H
                                   28.24%     2 S               2.394  0.00    15 H
                                  -23.48%     2 P:y             4.589  0.00     1 C
                                   16.67%     2 S               2.394  0.00    14 H
                                   16.24%     1 S              -6.532  1.00    14 H
                                    5.55%     2 P:y             4.589  0.00     2 C
                                    2.97%     1 S              -6.532  1.00    22 H
                                    2.95%     2 S               2.394  0.00    22 H
                                    2.38%     3 S              40.869  0.00    15 H
                                    2.26%     1 P:y            -5.239  0.67     1 C
                                    2.06%     1 P:x            -5.239  0.67     1 C
                                   -1.83%     2 P:x             4.589  0.00     1 C
                                    1.75%     1 S              -6.532  1.00    18 H
                                    1.61%     1 S              -6.532  1.00    19 H
                                    1.59%     3 S              40.869  0.00    14 H
                                    1.54%     1 S              -6.532  1.00    21 H
                                    1.48%     2 S               2.394  0.00    19 H
                                   -1.48%     2 P:y             4.589  0.00     8 C
                                   -1.47%     2 P:x             4.589  0.00     7 C
                                    1.45%     2 S               2.394  0.00    18 H
                                    1.28%     2 S               2.394  0.00    21 H
                                    1.04%     1 P:y            -9.020  1.33     9 O
       1.744  0.00    60 A         27.62%     1 S              -6.532  1.00    22 H
                                   27.41%     1 S              -6.532  1.00    21 H
                                   24.23%     2 S               2.394  0.00    22 H
                                  -19.90%     2 P:x             4.589  0.00     7 C
                                   15.66%     2 S               2.394  0.00    21 H
                                  -12.17%     2 P:y             4.589  0.00     8 C
                                   11.32%     1 S              -6.532  1.00    20 H
                                   -9.46%     2 P:z             4.589  0.00     8 C
                                    6.50%     1 S              -6.532  1.00    14 H
                                    6.06%     2 S               2.394  0.00    20 H
                                    5.96%     2 S               2.394  0.00    18 H
                                    5.75%     1 S              -6.532  1.00    18 H
                                    3.36%     2 S               2.394  0.00    14 H
                                   -3.27%     2 P:x             4.589  0.00     6 C
                                   -3.24%     2 P:y             4.589  0.00     1 C
                                    3.16%     3 S              40.869  0.00    21 H
                                    2.52%     2 S             -13.620  2.00     7 C
                                    2.50%     1 P:x            -5.239  0.67     6 C
                                   -2.15%     2 P:y             4.589  0.00     7 C
                                    1.95%     1 P:x            -5.239  0.67     1 C
                                    1.83%     2 P:x             4.589  0.00     5 C
                                   -1.71%     2 P:z             4.589  0.00     6 C
                                   -1.68%     2 P:y             4.589  0.00     6 C
                                   -1.67%     1 P:x            -5.239  0.67     7 C
                                    1.63%     3 S              40.869  0.00    22 H
                                   -1.52%     3 S              10.158  0.00     4 C
                                   -1.32%     2 P:x             4.589  0.00     4 C
                                    1.25%     1 S              -6.532  1.00    17 H
                                    1.23%     2 S               2.394  0.00    15 H
                                    1.09%     1 P:y            -5.239  0.67     1 C
                                   -1.08%     3 S              10.158  0.00     7 C
                                    1.06%     3 S              40.869  0.00    20 H
                                   -1.01%     2 P:z             4.589  0.00     7 C



 =======================================================================
 Electrostatic potential at the Nuclei due to electrons and other nuclei
 =======================================================================
  
         Atom                  Potential
         ----                  ---------
     1)   C                  14.72727011
     2)   O                  22.34706680
     3)   C                  14.64897308
     4)   O                  22.41570659
     5)   N                  18.39741971
     6)   N                  18.26703946
     7)   N                  18.37641816
     8)   C                  14.73593116
     9)   C                  14.77849238
    10)   C                  14.77601107
    11)   C                  14.77457676
    12)   C                  14.77571978
    13)   C                  14.77569814
    14)   H                   1.09822484
    15)   H                   1.09739248
    16)   H                   1.09565549
    17)   H                   0.97573142
    18)   H                   1.10079856
    19)   H                   1.09826004
    20)   H                   1.09575565
    21)   H                   1.09654988
    22)   H                   1.09605260
 Mulliken charges used for AMS results%charges...


    =====================
     CALCULATION RESULTS
    =====================

Energy (hartree)            -4.95930415


--------------
Atomic charges
--------------
  Index   Atom    Charge
      1      C    0.9424
      2      O   -0.5053
      3      C    0.7766
      4      O   -0.6180
      5      N   -0.3054
      6      N    0.3323
      7      N   -0.1985
      8      C    0.0685
      9      C    0.2038
     10      C    0.2249
     11      C    0.2169
     12      C    0.2150
     13      C    0.2382
     14      H   -0.1811
     15      H   -0.1827
     16      H   -0.2290
     17      H   -0.0276
     18      H   -0.1519
     19      H   -0.2164
     20      H   -0.2064
     21      H   -0.2097
     22      H   -0.1867


Dipole moment vector    (Debye):    -0.76287420    0.70027459    0.96022537
              magnitude (Debye):     1.41223026


-----------------------
Molecular orbitals info
-----------------------
n orbitals:              437
n spin:                    1

Note: only printing virtual orbitals with
      energy smaller than HOMO + 100. eV

HOMO (eV):              -5.5016
LUMO (eV):              -3.6588
HOMO-LUMO gap (eV):      1.8427

   Index   Energy (eV)    Occupation
     273       94.3329         0.000       
     272       93.3038         0.000       
     271       93.1425         0.000       
     270       92.8219         0.000       
     269       92.4395         0.000       
     268       92.1483         0.000       
     267       91.3278         0.000       
     266       90.9773         0.000       
     265       90.5832         0.000       
     264       89.5475         0.000       
     263       89.1146         0.000       
     262       88.3737         0.000       
     261       87.8991         0.000       
     260       87.3135         0.000       
     259       86.8615         0.000       
     258       86.1318         0.000       
     257       85.5832         0.000       
     256       85.5471         0.000       
     255       85.2098         0.000       
     254       84.7116         0.000       
     253       83.4134         0.000       
     252       82.4739         0.000       
     251       82.3948         0.000       
     250       82.0950         0.000       
     249       81.1247         0.000       
     248       80.1451         0.000       
     247       80.0650         0.000       
     246       79.9189         0.000       
     245       79.8669         0.000       
     244       79.7250         0.000       
     243       78.6954         0.000       
     242       77.1521         0.000       
     241       76.9829         0.000       
     240       76.7937         0.000       
     239       76.3508         0.000       
     238       76.0624         0.000       
     237       75.5982         0.000       
     236       74.9848         0.000       
     235       74.4224         0.000       
     234       74.3241         0.000       
     233       73.2030         0.000       
     232       73.0192         0.000       
     231       72.4754         0.000       
     230       72.0985         0.000       
     229       71.4088         0.000       
     228       70.7398         0.000       
     227       69.4237         0.000       
     226       68.9412         0.000       
     225       68.1921         0.000       
     224       68.0239         0.000       
     223       67.7211         0.000       
     222       67.0216         0.000       
     221       65.6309         0.000       
     220       65.0669         0.000       
     219       64.7052         0.000       
     218       64.4235         0.000       
     217       63.8237         0.000       
     216       62.9327         0.000       
     215       62.7621         0.000       
     214       62.2092         0.000       
     213       62.1341         0.000       
     212       61.8979         0.000       
     211       60.9836         0.000       
     210       60.6405         0.000       
     209       59.8854         0.000       
     208       59.6163         0.000       
     207       58.3946         0.000       
     206       57.6312         0.000       
     205       56.6684         0.000       
     204       56.6358         0.000       
     203       55.7038         0.000       
     202       55.4226         0.000       
     201       55.2057         0.000       
     200       54.6933         0.000       
     199       54.1061         0.000       
     198       53.6860         0.000       
     197       52.9645         0.000       
     196       52.5201         0.000       
     195       51.6262         0.000       
     194       51.0126         0.000       
     193       50.2657         0.000       
     192       50.1589         0.000       
     191       50.0157         0.000       
     190       49.8775         0.000       
     189       49.5919         0.000       
     188       49.0226         0.000       
     187       48.9248         0.000       
     186       48.0540         0.000       
     185       47.5298         0.000       
     184       46.2681         0.000       
     183       45.9349         0.000       
     182       44.4168         0.000       
     181       44.1298         0.000       
     180       43.9976         0.000       
     179       43.6402         0.000       
     178       43.0881         0.000       
     177       42.3818         0.000       
     176       42.0947         0.000       
     175       41.9343         0.000       
     174       41.6015         0.000       
     173       41.4865         0.000       
     172       40.2473         0.000       
     171       40.1677         0.000       
     170       39.2485         0.000       
     169       39.1834         0.000       
     168       38.9551         0.000       
     167       38.8249         0.000       
     166       38.3538         0.000       
     165       37.6099         0.000       
     164       37.3319         0.000       
     163       36.9733         0.000       
     162       36.5806         0.000       
     161       36.1010         0.000       
     160       35.8235         0.000       
     159       35.4798         0.000       
     158       34.9856         0.000       
     157       34.8542         0.000       
     156       34.1082         0.000       
     155       33.2594         0.000       
     154       32.9912         0.000       
     153       32.1881         0.000       
     152       31.9188         0.000       
     151       31.6926         0.000       
     150       31.4431         0.000       
     149       30.7241         0.000       
     148       29.9625         0.000       
     147       29.6589         0.000       
     146       29.3268         0.000       
     145       28.7643         0.000       
     144       28.4782         0.000       
     143       28.3934         0.000       
     142       28.1448         0.000       
     141       27.3791         0.000       
     140       27.3535         0.000       
     139       27.2374         0.000       
     138       26.8486         0.000       
     137       26.0477         0.000       
     136       25.7047         0.000       
     135       25.5182         0.000       
     134       25.2947         0.000       
     133       24.9672         0.000       
     132       24.8262         0.000       
     131       23.9267         0.000       
     130       23.1587         0.000       
     129       22.7389         0.000       
     128       22.2910         0.000       
     127       22.0467         0.000       
     126       21.5359         0.000       
     125       20.9751         0.000       
     124       20.7503         0.000       
     123       20.1347         0.000       
     122       20.0921         0.000       
     121       19.6766         0.000       
     120       19.6527         0.000       
     119       18.9699         0.000       
     118       18.3387         0.000       
     117       18.0272         0.000       
     116       17.7213         0.000       
     115       17.3834         0.000       
     114       17.2033         0.000       
     113       16.7051         0.000       
     112       16.2368         0.000       
     111       15.8479         0.000       
     110       15.4642         0.000       
     109       14.8777         0.000       
     108       14.6612         0.000       
     107       14.3485         0.000       
     106       13.8751         0.000       
     105       13.1384         0.000       
     104       12.7344         0.000       
     103       12.4034         0.000       
     102       12.2545         0.000       
     101       12.0414         0.000       
     100       11.6588         0.000       
      99       11.3836         0.000       
      98       11.0089         0.000       
      97       10.4038         0.000       
      96       10.3726         0.000       
      95        9.9344         0.000       
      94        9.7316         0.000       
      93        9.4210         0.000       
      92        9.3033         0.000       
      91        9.2516         0.000       
      90        9.1322         0.000       
      89        8.7976         0.000       
      88        8.5797         0.000       
      87        8.4024         0.000       
      86        8.3606         0.000       
      85        8.2347         0.000       
      84        7.7255         0.000       
      83        7.5691         0.000       
      82        7.4920         0.000       
      81        7.2677         0.000       
      80        7.0157         0.000       
      79        6.7740         0.000       
      78        6.1291         0.000       
      77        6.0834         0.000       
      76        5.8373         0.000       
      75        5.5265         0.000       
      74        5.3957         0.000       
      73        5.3762         0.000       
      72        4.9878         0.000       
      71        4.7982         0.000       
      70        4.7517         0.000       
      69        4.6673         0.000       
      68        4.4793         0.000       
      67        4.3865         0.000       
      66        4.2325         0.000       
      65        3.9798         0.000       
      64        3.5433         0.000       
      63        3.0818         0.000       
      62        2.5142         0.000       
      61        2.1076         0.000       
      60        1.7437         0.000       
      59        1.4881         0.000       
      58        1.3446         0.000       
      57        1.1410         0.000       
      56        0.8648         0.000       
      55        0.5056         0.000       
      54        0.2705         0.000       
      53        0.2108         0.000       
      52       -0.0725         0.000       
      51       -0.2226         0.000       
      50       -0.8804         0.000       
      49       -1.4112         0.000       
      48       -3.6588         0.000 < LUMO
      47       -5.5016         2.000 < HOMO
      46       -6.3622         2.000       
      45       -6.5590         2.000       
      44       -7.1242         2.000       
      43       -7.3507         2.000       
      42       -7.4302         2.000       
      41       -7.8485         2.000       
      40       -8.6591         2.000       
      39       -8.9192         2.000       
      38       -9.1247         2.000       
      37       -9.3267         2.000       
      36       -9.9058         2.000       
      35      -10.4687         2.000       
      34      -10.7162         2.000       
      33      -10.8513         2.000       
      32      -11.2425         2.000       
      31      -11.5528         2.000       
      30      -11.6565         2.000       
      29      -12.2059         2.000       
      28      -12.3544         2.000       
      27      -13.2802         2.000       
      26      -13.7006         2.000       
      25      -14.8455         2.000       
      24      -15.2450         2.000       
      23      -15.5849         2.000       
      22      -17.1222         2.000       
      21      -18.3676         2.000       
      20      -18.6653         2.000       
      19      -19.5538         2.000       
      18      -21.4168         2.000       
      17      -22.9156         2.000       
      16      -25.4575         2.000       
      15      -27.3984         2.000       
      14      -28.1817         2.000       
      13     -270.3321         2.000       
      12     -270.3891         2.000       
      11     -270.3927         2.000       
      10     -270.4172         2.000       
       9     -270.4332         2.000       
       8     -271.4322         2.000       
       7     -271.5818         2.000       
       6     -273.7834         2.000       
       5     -382.3781         2.000       
       4     -382.8922         2.000       
       3     -385.6383         2.000       
       2     -511.0467         2.000       
       1     -512.8301         2.000       

AMS application finished. Exiting.
NORMAL TERMINATION
     Total cpu time:     109.28
  Total system time:       0.95
 Total elapsed time:     110.94
NORMAL TERMINATION
