
 *******************************************************************************
 *                                                                             *
 *  --------------------------------                                           *
 *   Amsterdam Modeling Suite (AMS)              2026.103                      *
 *  --------------------------------                                           *
 *                                               r260501 2026-05-01 873454b5   *
 *                                                                             *
 *                                                                             *
 *                              =================                              *
 *                              |               |                              *
 *                              |     A M S     |                              *
 *                              |               |                              *
 *                              =================                              *
 *                                                                             *
 *                                                                             *
 *   Online information and documentation:  https://www.scm.com/support/       *
 *   E-mail:  support@scm.com   info@scm.com                                   *
 *                                                                             *
 *   Scientific publications using AMS results must be properly referenced     *
 *   See the User Manuals (or the web site) for recommended citations          *
 *   The terms and conditions of the End User License Agreement apply to       *
 *   the use of AMS, https://www.scm.com/license-terms/                        *
 *                                                                             *
 **********************  x86_64_linux_intel / intelmpi  ************************
 
 Licensed to: Jong-June Jeon / University of Seoul 2026-05-13 16:10:32
 SCM User ID: u30731
  
 AMS 2026.103  RunTime: May31-2026 21:57:55  ShM Nodes: 1  Procs: 1

 AMS jobname: c5_fragB_opt
 AMS jobid  : 2124394533

 Start   directory: /gpfs/home1/yeseo1ee/projects/eda-asm-prediction/adf_outputs/batch_001/dipolar_001958/
 Results directory: /gpfs/home1/yeseo1ee/projects/eda-asm-prediction/adf_outputs/batch_001/dipolar_001958/c5_fragB_opt.results/
 Scratch directory: /tmp/amstmp_c5_fragB_opt_kid0.2124394533/

 RNG seed: 809203307 383636146 -1257848437 886005778 -704513081 -1948825174 2008279916 434715257



                      ************************************************************************
                      *  ADF 2026.103  RunTime: May31-2026 21:57:55  ShM Nodes: 1  Procs: 1  *
                      ************************************************************************
  

       ***************************
       *  GEOMETRY OPTIMIZATION  *
       ***************************

Optimization Method                    Quasi Newton
Optimization Coordinates               Delocalized Coordinates
Optimize lattice                       F
 
 ------------------------------------------------------
 Convergence criteria (Hartree,Angstrom)
 ------------------------------------------------------
 Maximum gradient               0.000100000000
 Maximum rms gradient           0.000066666667
 Maximum step allowed           0.010000000000
 Maximum rms step allowed       0.006666666667
 Maximum energy change allowe   0.000300000000
 Maximum stress energy allowe   0.000500000000
 
Initial model Hessian                  Automatic Hessian
 
------------------------------------
Quasi-Newton Optimizer Parameters
------------------------------------
Hessian Update Method                  BFGS
Maximum number of steps                  200
First GDIIS cycle                          0
Maximum GDIIS vectors                      0
Trust radius (bohr)                        0.200000
Trust radius varies                        T
Constraints converged at all steps         T
Use projector                              T
 
 Rigid motions settings for: old optimizer
 Atomic rotations (x,y,z):     T T T
 Atomic translations (x,y,z):  T T T
 Tolerance:                  1.000000000000000E-006

--------
Geometry
--------
Formula: C14H14F2
Atoms
  Index Symbol   x (angstrom)   y (angstrom)   z (angstrom)
      1      C   -12.86917000   -16.11846000     9.37357000
      2      C   -12.04233000   -15.58927000    10.15249000
      3      C   -11.37793000   -15.67947000    11.46833000
      4      C    -9.88153000   -15.94744000    11.38231000
      5      C    -9.29404000   -16.51766000    10.24658000
      6      C    -7.92149000   -16.78973000    10.21523000
      7      C    -7.12135000   -16.50182000    11.32367000
      8      C    -7.70259000   -15.93637000    12.46475000
      9      C    -9.07052000   -15.66095000    12.49086000
     10      C   -12.08137000   -16.81816000    12.26065000
     11      C   -13.53445000   -16.56852000    12.69255000
     12      C   -14.59875000   -16.15646000    11.66148000
     13      C   -14.89421000   -17.09332000    10.48455000
     14      C   -13.80624000   -17.24873000     9.41482000
     15      F   -13.08494000   -18.41532000     9.65098000
     16      F   -14.40443000   -17.48454000     8.19381000
     17      H   -11.52390000   -14.72735000    12.00517000
     18      H    -9.91316000   -16.74528000     9.37636000
     19      H    -7.47803000   -17.22870000     9.31812000
     20      H    -6.04959000   -16.71243000    11.29890000
     21      H    -7.08481000   -15.70094000    13.33484000
     22      H    -9.51861000   -15.20830000    13.37941000
     23      H   -12.00491000   -17.73629000    11.65994000
     24      H   -11.48962000   -16.99508000    13.17236000
     25      H   -13.52843000   -15.78447000    13.46928000
     26      H   -13.87707000   -17.48899000    13.19692000
     27      H   -15.54678000   -16.05156000    12.21398000
     28      H   -14.38115000   -15.15206000    11.26818000
     29      H   -15.13365000   -18.11104000    10.83254000
     30      H   -15.78075000   -16.70944000     9.95984000

Total System Charge              0.00000


----------------
ADF Engine Input
----------------
 
   Basis
     Type TZ2P
     Core None
   End
   XC
     GGA BLYP
     Dispersion GRIMME3 BJDAMP
   End
   Symmetry NOSYM
   NumericalQuality Normal
   Unrestricted No
   SCF
     Iterations 200
     Converge 1.0e-6
   End
   Save TAPE21
 

 Title: *** (NO TITLE) ***

 Using automatic Hessian for delocalized coordinates.
 *** GO1_GOStep1 ***

 Energy gradients wrt nuclear displacements
 ==========================================

     Atom      Cartesian (a.u./angstrom)
                 X         Y         Z
 ----------------------------------------
     1 C    -0.084683 -0.048801 -0.074082
     2 C     0.085580  0.076006  0.053669
     3 C    -0.014111 -0.034230  0.006718
     4 C    -0.008659 -0.001766  0.000847
     5 C     0.003173  0.001734  0.006761
     6 C    -0.001802  0.003388  0.004777
     7 C    -0.006418  0.000783 -0.000237
     8 C    -0.006037 -0.001491 -0.006174
     9 C     0.003710 -0.004088 -0.003927
    10 C     0.001102  0.016216 -0.000083
    11 C     0.002587  0.001122 -0.012980
    12 C     0.008332 -0.011325 -0.002944
    13 C     0.014566  0.003876 -0.003322
    14 C     0.006274 -0.019332  0.014164
    15 F    -0.018896  0.022099 -0.008865
    16 F     0.019269  0.002377  0.029164
    17 H    -0.001608  0.001958 -0.003115
    18 H    -0.002503 -0.001449 -0.004387
    19 H     0.002204 -0.002149 -0.004485
    20 H     0.005128 -0.001306 -0.000330
    21 H     0.002750  0.000993  0.003876
    22 H    -0.002507  0.001650  0.002782
    23 H    -0.000307 -0.005305 -0.003223
    24 H    -0.000068 -0.002424  0.003733
    25 H     0.000689  0.002445  0.001483
    26 H    -0.001632 -0.003327  0.001133
    27 H    -0.002776  0.000218  0.000688
    28 H    -0.000501  0.004566 -0.001554
    29 H    -0.000469 -0.004290  0.001377
    30 H    -0.002387  0.001850 -0.001463
 ----------------------------------------
 
----------------------------------------------------------------------
Geometry Convergence after Step   1       (Hartree/Angstrom,Angstrom)
----------------------------------------------------------------------
current energy                               -6.45492371 Hartree
energy change                      -6.45492371     0.00030000    F
constrained gradient max            0.08556155     0.00010000    F
constrained gradient rms            0.02019765     0.00006667    F
gradient max                        0.08556155
gradient rms                        0.02019765
cart. step max                      0.09941603     0.01000000    F
cart. step rms                      0.03718233     0.00666667    F
 

--------
Geometry
--------
Formula: C14H14F2
Atoms
  Index Symbol   x (angstrom)   y (angstrom)   z (angstrom)
      1      C   -12.86478117   -16.16245376     9.40800918
      2      C   -12.06479135   -15.68786544    10.18011637
      3      C   -11.36375098   -15.71498652    11.48070777
      4      C    -9.85813020   -15.95771240    11.38914494
      5      C    -9.26771092   -16.54747339    10.26412229
      6      C    -7.89035965   -16.79738833    10.23294655
      7      C    -7.08746218   -16.46449301    11.32811127
      8      C    -7.67030017   -15.87725424    12.45785992
      9      C    -9.04417213   -15.62549699    12.48468987
     10      C   -12.07444191   -16.84972938    12.28475970
     11      C   -13.53607073   -16.59343356    12.70374797
     12      C   -14.59589326   -16.16717484    11.66351531
     13      C   -14.93680280   -17.06643303    10.45913946
     14      C   -13.86016611   -17.24626984     9.36933228
     15      F   -13.18435603   -18.46077852     9.58093460
     16      F   -14.47609872   -17.40271676     8.12601008
     17      H   -11.51447163   -14.75470618    12.00104378
     18      H    -9.88739173   -16.80831476     9.40702819
     19      H    -7.44571663   -17.25217157     9.34770954
     20      H    -6.01500649   -16.65675505    11.30186031
     21      H    -7.05259975   -15.60826576    13.31508845
     22      H    -9.49225504   -15.15837930    13.36320020
     23      H   -11.99300625   -17.76912581    11.69241187
     24      H   -11.48598859   -17.01689792    13.19831602
     25      H   -13.53056603   -15.80704849    13.47607797
     26      H   -13.88641073   -17.50715580    13.21084830
     27      H   -15.53866578   -16.04352082    12.21833562
     28      H   -14.35034556   -15.16623445    11.28464514
     29      H   -15.22045148   -18.07969381    10.77826589
     30      H   -15.80763600   -16.62822031     9.95449116

Total System Charge              0.00000

 *** GO1_GOStep2 ***

 Energy gradients wrt nuclear displacements
 ==========================================

     Atom      Cartesian (a.u./angstrom)
                 X         Y         Z
 ----------------------------------------
     1 C     0.011627  0.017462  0.016386
     2 C    -0.016189  0.007961 -0.029303
     3 C    -0.005586 -0.025654  0.011781
     4 C    -0.002967  0.000181  0.000066
     5 C     0.001383  0.001028  0.002448
     6 C    -0.000291  0.001418  0.001824
     7 C    -0.002220  0.000018 -0.000209
     8 C    -0.002139 -0.000688 -0.001963
     9 C     0.002795 -0.002332 -0.001188
    10 C    -0.002162  0.010058 -0.003489
    11 C     0.000810  0.003509 -0.005814
    12 C     0.005370 -0.010229 -0.000879
    13 C     0.007450  0.006849 -0.001125
    14 C     0.001456 -0.017732  0.007836
    15 F    -0.005535  0.008825 -0.000403
    16 F     0.003893 -0.000313  0.005565
    17 H     0.000817  0.002235 -0.001475
    18 H    -0.000818 -0.000631 -0.001623
    19 H     0.000826 -0.000858 -0.001780
    20 H     0.002048 -0.000515 -0.000088
    21 H     0.001264  0.000319  0.001574
    22 H    -0.001074  0.000681  0.001016
    23 H     0.000321 -0.001517 -0.000586
    24 H     0.000286 -0.001118  0.000858
    25 H     0.001191  0.001205  0.001004
    26 H    -0.001269 -0.001346  0.001144
    27 H    -0.001386  0.000374  0.000026
    28 H     0.000837  0.001780 -0.000612
    29 H     0.000094 -0.001981 -0.000333
    30 H    -0.000830  0.001012 -0.000659
 ----------------------------------------

 dE(predicted):    -0.69300E-02, dE(actual):    -0.65445E-02, Trust radius:    0.400000, all in a.u.
 
----------------------------------------------------------------------
Geometry Convergence after Step   2       (Hartree/Angstrom,Angstrom)
----------------------------------------------------------------------
current energy                               -6.46146818 Hartree
energy change                      -0.00654447     0.00030000    F
constrained gradient max            0.02935550     0.00010000    F
constrained gradient rms            0.00646433     0.00006667    F
gradient max                        0.02935550
gradient rms                        0.00646433
cart. step max                      0.20674921     0.01000000    F
cart. step rms                      0.05972032     0.00666667    F
 

--------
Geometry
--------
Formula: C14H14F2
Atoms
  Index Symbol   x (angstrom)   y (angstrom)   z (angstrom)
      1      C   -12.85743265   -16.26120977     9.39763629
      2      C   -12.04936115   -15.81239677    10.18650901
      3      C   -11.34034576   -15.74794935    11.47497146
      4      C    -9.82756957   -15.95914130    11.39463812
      5      C    -9.22708253   -16.59384789    10.29957945
      6      C    -7.84614011   -16.82405823    10.28361371
      7      C    -7.04996680   -16.41797175    11.35971525
      8      C    -7.64295971   -15.78100672    12.45725250
      9      C    -9.02195196   -15.55280003    12.47150354
     10      C   -12.04299520   -16.89089976    12.28866810
     11      C   -13.51539911   -16.65097272    12.69858889
     12      C   -14.58259283   -16.17350924    11.67683813
     13      C   -14.99483939   -17.02116300    10.44716601
     14      C   -13.95831208   -17.23174624     9.31264904
     15      F   -13.39110524   -18.52139291     9.44275823
     16      F   -14.61094788   -17.25894793     8.07047333
     17      H   -11.52091838   -14.77935447    11.96796165
     18      H    -9.84177521   -16.90781895     9.45907045
     19      H    -7.39343007   -17.31680892     9.42554114
     20      H    -5.97637051   -16.59362384    11.34403152
     21      H    -7.03184183   -15.45932317    13.29856488
     22      H    -9.47806040   -15.05486828    13.32685524
     23      H   -11.94930989   -17.80810482    11.69774206
     24      H   -11.45569741   -17.04699602    13.20369213
     25      H   -13.51422948   -15.89005989    13.49419910
     26      H   -13.86678092   -17.57676854    13.17860443
     27      H   -15.50766737   -16.03669581    12.25569122
     28      H   -14.31600978   -15.17013954    11.32466190
     29      H   -15.33510334   -18.02259424    10.74158815
     30      H   -15.84960342   -16.51597987     9.98170508

Total System Charge              0.00000

 *** GO1_GOStep3 ***

 Energy gradients wrt nuclear displacements
 ==========================================

     Atom      Cartesian (a.u./angstrom)
                 X         Y         Z
 ----------------------------------------
     1 C     0.001649  0.004633  0.000782
     2 C    -0.001116  0.003698 -0.006058
     3 C    -0.000788 -0.009749  0.013754
     4 C     0.000253 -0.000379 -0.001046
     5 C    -0.000391  0.000944 -0.000798
     6 C     0.000428 -0.000722  0.000168
     7 C     0.000574 -0.000158 -0.000736
     8 C     0.000032  0.000197  0.000631
     9 C     0.001225  0.000011  0.000299
    10 C    -0.001859  0.006068 -0.006283
    11 C     0.000605  0.001127 -0.002611
    12 C     0.000981 -0.004898  0.001544
    13 C     0.003206  0.003477  0.000458
    14 C    -0.004992 -0.007762  0.002141
    15 F     0.000191  0.003491  0.001189
    16 F    -0.001888 -0.002527 -0.004018
    17 H     0.002152  0.001974  0.000245
    18 H     0.000293 -0.000001  0.000216
    19 H    -0.000179  0.000076  0.000015
    20 H    -0.000279 -0.000072 -0.000076
    21 H    -0.000002 -0.000363 -0.000046
    22 H    -0.000007 -0.000361 -0.000037
    23 H    -0.000250  0.000486  0.000374
    24 H     0.000725 -0.000227 -0.001130
    25 H     0.000892  0.000141 -0.000128
    26 H    -0.000369  0.000338  0.001479
    27 H    -0.000168  0.000579 -0.000367
    28 H    -0.000471 -0.000058  0.000949
    29 H    -0.000920 -0.000282 -0.000963
    30 H     0.000475  0.000320  0.000054
 ----------------------------------------

 dE(predicted):    -0.23496E-02, dE(actual):    -0.26636E-02, Trust radius:    0.800000, all in a.u.
 
----------------------------------------------------------------------
Geometry Convergence after Step   3       (Hartree/Angstrom,Angstrom)
----------------------------------------------------------------------
current energy                               -6.46413174 Hartree
energy change                      -0.00266356     0.00030000    F
constrained gradient max            0.01372515     0.00010000    F
constrained gradient rms            0.00269425     0.00006667    F
gradient max                        0.01372515
gradient rms                        0.00269425
cart. step max                      0.14133728     0.01000000    F
cart. step rms                      0.04283641     0.00666667    F
 

--------
Geometry
--------
Formula: C14H14F2
Atoms
  Index Symbol   x (angstrom)   y (angstrom)   z (angstrom)
      1      C   -12.84863000   -16.31940609     9.39002450
      2      C   -12.04165888   -15.89101988    10.18712963
      3      C   -11.33518511   -15.78145177    11.46477481
      4      C    -9.81954438   -15.96946336    11.39595077
      5      C    -9.21085583   -16.64315334    10.32915380
      6      C    -7.82611400   -16.84632867    10.31815599
      7      C    -7.03718772   -16.38519734    11.37754398
      8      C    -7.63974275   -15.71198463    12.44776274
      9      C    -9.02254718   -15.50553986    12.45494216
     10      C   -12.02036670   -16.92853294    12.30340872
     11      C   -13.50039333   -16.69440151    12.70000147
     12      C   -14.55744620   -16.17137268    11.68254682
     13      C   -15.01450884   -16.99163949    10.44428426
     14      C   -14.00455657   -17.21028788     9.28157546
     15      F   -13.52815930   -18.54698402     9.32576436
     16      F   -14.67664820   -17.11761065     8.05392466
     17      H   -11.54335662   -14.80979990    11.93733388
     18      H    -9.82157276   -16.99886770     9.50278782
     19      H    -7.36559254   -17.36554274     9.48061715
     20      H    -5.96101858   -16.54230951    11.36716180
     21      H    -7.03284180   -15.34163789    13.27126576
     22      H    -9.48490663   -14.97490026    13.28645898
     23      H   -11.91657325   -17.85042476    11.72155442
     24      H   -11.43671588   -17.06637995    13.22378776
     25      H   -13.50691623   -15.95647677    13.51643806
     26      H   -13.86195100   -17.63113241    13.14818163
     27      H   -15.47279400   -16.01874096    12.27221176
     28      H   -14.26541297   -15.17115631    11.34223180
     29      H   -15.38106260   -17.98542565    10.72990020
     30      H   -15.86154013   -16.45098107    10.00559483

Total System Charge              0.00000

 *** GO1_GOStep4 ***

 Energy gradients wrt nuclear displacements
 ==========================================

     Atom      Cartesian (a.u./angstrom)
                 X         Y         Z
 ----------------------------------------
     1 C     0.004939  0.004914  0.001704
     2 C    -0.005548 -0.002482 -0.004111
     3 C    -0.001601 -0.000514  0.006316
     4 C     0.001855 -0.000458 -0.001381
     5 C    -0.000875 -0.000789 -0.000315
     6 C     0.000599  0.000569 -0.001054
     7 C     0.000727 -0.000819 -0.000236
     8 C     0.000248  0.000134  0.000901
     9 C    -0.000284 -0.000114  0.001281
    10 C     0.000615  0.001296 -0.003370
    11 C     0.000909 -0.000355 -0.000426
    12 C     0.000647 -0.000034  0.001090
    13 C    -0.000428  0.000539 -0.001120
    14 C    -0.001705 -0.001694  0.001796
    15 F     0.001532 -0.002111  0.000205
    16 F    -0.000858 -0.001233 -0.001909
    17 H     0.001168  0.000621 -0.000378
    18 H     0.000358  0.000368  0.000461
    19 H    -0.000495  0.000323  0.000451
    20 H    -0.000760  0.000030 -0.000118
    21 H    -0.000317 -0.000134 -0.000599
    22 H     0.000425 -0.000195 -0.000404
    23 H    -0.000643  0.000688  0.000308
    24 H     0.000276 -0.000760 -0.000102
    25 H     0.000189  0.000233 -0.000372
    26 H     0.000601  0.000754  0.001282
    27 H     0.000269 -0.000135 -0.000202
    28 H    -0.000734  0.000030  0.000952
    29 H    -0.001501  0.000435 -0.001137
    30 H     0.000393  0.000894  0.000487
 ----------------------------------------

 dE(predicted):    -0.70340E-03, dE(actual):    -0.89718E-03, Trust radius:    0.800000, all in a.u.
 
----------------------------------------------------------------------
Geometry Convergence after Step   4       (Hartree/Angstrom,Angstrom)
----------------------------------------------------------------------
current energy                               -6.46502892 Hartree
energy change                      -0.00089718     0.00030000    F
constrained gradient max            0.00630990     0.00010000    F
constrained gradient rms            0.00154736     0.00006667    F
gradient max                        0.00630990
gradient rms                        0.00154736
cart. step max                      0.19816178     0.01000000    F
cart. step rms                      0.05273186     0.00666667    F
 

--------
Geometry
--------
Formula: C14H14F2
Atoms
  Index Symbol   x (angstrom)   y (angstrom)   z (angstrom)
      1      C   -12.85454033   -16.34245272     9.38151083
      2      C   -12.03808316   -15.94391324    10.18529846
      3      C   -11.32788011   -15.81366256    11.44940528
      4      C    -9.81064500   -15.97859706    11.39123470
      5      C    -9.19116743   -16.70694865    10.36702836
      6      C    -7.80568570   -16.90371126    10.37666827
      7      C    -7.02338998   -16.35759953    11.40020628
      8      C    -7.63562581   -15.62146145    12.42178381
      9      C    -9.02187534   -15.43722565    12.41805128
     10      C   -11.99869835   -16.96195687    12.31346010
     11      C   -13.48706681   -16.74460761    12.69955408
     12      C   -14.53794236   -16.17962383    11.69300789
     13      C   -15.02699781   -16.97593696    10.44839545
     14      C   -14.05549225   -17.15445851     9.24293711
     15      F   -13.66281582   -18.51816550     9.16772270
     16      F   -14.75112532   -16.91944887     8.04932768
     17      H   -11.55932368   -14.84244196    11.90957206
     18      H    -9.79731074   -17.12582238     9.56683008
     19      H    -7.33734062   -17.47485958     9.57777629
     20      H    -5.94535835   -16.50416671    11.40264267
     21      H    -7.03468835   -15.19344358    13.22150785
     22      H    -9.49274606   -14.86478672    13.21657204
     23      H   -11.87901378   -17.88949858    11.74267578
     24      H   -11.41694701   -17.07572224    13.23807005
     25      H   -13.50631317   -16.03973150    13.54423286
     26      H   -13.85482262   -17.69881970    13.10267580
     27      H   -15.44432351   -16.02229648    12.29528932
     28      H   -14.23046045   -15.18003385    11.36402435
     29      H   -15.37810147   -17.97738787    10.72465231
     30      H   -15.89001863   -16.42936857    10.05035626

Total System Charge              0.00000

 *** GO1_GOStep5 ***

 Energy gradients wrt nuclear displacements
 ==========================================

     Atom      Cartesian (a.u./angstrom)
                 X         Y         Z
 ----------------------------------------
     1 C    -0.001589 -0.000493 -0.003934
     2 C    -0.002127 -0.001175  0.005874
     3 C    -0.000509  0.003577 -0.003821
     4 C     0.002316 -0.001694 -0.000012
     5 C     0.000125  0.002300 -0.001464
     6 C     0.000229 -0.001954  0.001080
     7 C     0.000278  0.000611 -0.000517
     8 C     0.000278  0.000722 -0.000399
     9 C    -0.000949 -0.000294  0.000617
    10 C     0.000991 -0.001426  0.000918
    11 C     0.001066 -0.002078  0.001776
    12 C     0.000340  0.002878  0.001046
    13 C    -0.001256 -0.002999 -0.002418
    14 C     0.002070  0.004940 -0.000367
    15 F     0.001069 -0.002971  0.000243
    16 F     0.000237  0.000069  0.000931
    17 H    -0.000201 -0.000924 -0.001162
    18 H     0.000049 -0.000206  0.000589
    19 H    -0.000218  0.000151  0.000280
    20 H    -0.000366 -0.000096 -0.000052
    21 H    -0.000196 -0.000572 -0.000186
    22 H     0.000351 -0.000270 -0.000147
    23 H    -0.000696  0.000311 -0.000220
    24 H    -0.000165 -0.000773  0.000633
    25 H    -0.000391  0.000360 -0.000171
    26 H     0.000657  0.000618  0.000673
    27 H     0.000277 -0.000869  0.000265
    28 H    -0.000747  0.000146  0.000288
    29 H    -0.001903  0.000657 -0.000669
    30 H     0.000981  0.001451  0.000328
 ----------------------------------------

 dE(predicted):    -0.46755E-03, dE(actual):    -0.45239E-03, Trust radius:    0.800000, all in a.u.
 
----------------------------------------------------------------------
Geometry Convergence after Step   5       (Hartree/Angstrom,Angstrom)
----------------------------------------------------------------------
current energy                               -6.46548130 Hartree
energy change                      -0.00045239     0.00030000    F
constrained gradient max            0.00584256     0.00010000    F
constrained gradient rms            0.00150436     0.00006667    F
gradient max                        0.00584256
gradient rms                        0.00150436
cart. step max                      0.04457207     0.01000000    F
cart. step rms                      0.01068779     0.00666667    F
 

--------
Geometry
--------
Formula: C14H14F2
Atoms
  Index Symbol   x (angstrom)   y (angstrom)   z (angstrom)
      1      C   -12.85224530   -16.34130285     9.38549370
      2      C   -12.03240703   -15.94111823    10.18564934
      3      C   -11.32651966   -15.80752277    11.45155473
      4      C    -9.81098726   -15.97604263    11.39476777
      5      C    -9.19669556   -16.71074235    10.37164718
      6      C    -7.81006701   -16.89833756    10.36900831
      7      C    -7.02545182   -16.36931969    11.39989375
      8      C    -7.63367346   -15.63765488    12.42709283
      9      C    -9.01780892   -15.43760190    12.41967996
     10      C   -12.00035040   -16.95040982    12.32040030
     11      C   -13.49176365   -16.73562443    12.69739108
     12      C   -14.54052857   -16.17686465    11.68666238
     13      C   -15.02064931   -16.99141365    10.45300388
     14      C   -14.05428479   -17.15169655     9.24125450
     15      F   -13.66294125   -18.51265475     9.14384888
     16      F   -14.75484707   -16.89968183     8.05419124
     17      H   -11.55785735   -14.83488462    11.90994391
     18      H    -9.80474045   -17.11757214     9.56621354
     19      H    -7.34407320   -17.46139102     9.56255160
     20      H    -5.94741306   -16.51820164    11.39887034
     21      H    -7.02951868   -15.21390817    13.22708564
     22      H    -9.48514345   -14.86291092    13.21900551
     23      H   -11.87207924   -17.88257626    11.75847598
     24      H   -11.42261520   -17.05214736    13.24859872
     25      H   -13.51772844   -16.03325593    13.54390436
     26      H   -13.86025099   -17.69259310    13.09398719
     27      H   -15.44836371   -16.01563674    12.28602962
     28      H   -14.23370004   -15.18041722    11.34704701
     29      H   -15.33809526   -18.00072570    10.74114883
     30      H   -15.90299987   -16.47394064    10.05806793

Total System Charge              0.00000

 *** GO1_GOStep6 ***

 Energy gradients wrt nuclear displacements
 ==========================================

     Atom      Cartesian (a.u./angstrom)
                 X         Y         Z
 ----------------------------------------
     1 C    -0.002611 -0.000992 -0.004756
     2 C     0.000962 -0.000339  0.006881
     3 C     0.000103  0.002711 -0.004742
     4 C     0.001253 -0.000054 -0.000300
     5 C    -0.000564 -0.001896  0.001597
     6 C     0.000268  0.001515 -0.000992
     7 C    -0.000148 -0.000635  0.000370
     8 C    -0.000027 -0.001031  0.000450
     9 C    -0.000339  0.001152 -0.000754
    10 C     0.000450 -0.001540  0.001662
    11 C     0.001010 -0.001451  0.001130
    12 C     0.000021  0.001902  0.000815
    13 C    -0.000320 -0.002856 -0.002109
    14 C     0.001300  0.004408  0.000313
    15 F     0.000587 -0.001546  0.000239
    16 F     0.000318 -0.000494  0.001488
    17 H    -0.000406 -0.000800 -0.000460
    18 H    -0.000081  0.000440 -0.000317
    19 H    -0.000047 -0.000040 -0.000084
    20 H     0.000023 -0.000077 -0.000123
    21 H     0.000078  0.000017 -0.000192
    22 H     0.000127 -0.000356  0.000143
    23 H    -0.000335  0.000039 -0.000347
    24 H    -0.000117 -0.000332  0.000282
    25 H    -0.000437  0.000373 -0.000097
    26 H     0.000339  0.000263  0.000037
    27 H    -0.000026 -0.000832  0.000325
    28 H    -0.000496  0.000244 -0.000083
    29 H    -0.001539  0.000552 -0.000454
    30 H     0.000656  0.001654  0.000077
 ----------------------------------------

 dE(predicted):    -0.14887E-03, dE(actual):    -0.23448E-03, Trust radius:    0.800000, all in a.u.
 
----------------------------------------------------------------------
Geometry Convergence after Step   6       (Hartree/Angstrom,Angstrom)
----------------------------------------------------------------------
current energy                               -6.46571578 Hartree
energy change                      -0.00023448     0.00030000    T
constrained gradient max            0.00684592     0.00010000    F
constrained gradient rms            0.00143953     0.00006667    F
gradient max                        0.00684592
gradient rms                        0.00143953
cart. step max                      0.13691219     0.01000000    F
cart. step rms                      0.02943395     0.00666667    F
 

--------
Geometry
--------
Formula: C14H14F2
Atoms
  Index Symbol   x (angstrom)   y (angstrom)   z (angstrom)
      1      C   -12.85260750   -16.32942729     9.39680897
      2      C   -12.02215044   -15.92642992    10.18417260
      3      C   -11.32431038   -15.78818540    11.45557619
      4      C    -9.81284995   -15.96648031    11.40102949
      5      C    -9.20814634   -16.70097396    10.37093782
      6      C    -7.82426579   -16.90518057    10.36387616
      7      C    -7.03137928   -16.39335929    11.39741343
      8      C    -7.62897661   -15.66229949    12.43130688
      9      C    -9.01112195   -15.44800398    12.42964467
     10      C   -12.00431737   -16.91985167    12.33182610
     11      C   -13.50155000   -16.71144234    12.69121735
     12      C   -14.54606100   -16.17155835    11.67024883
     13      C   -15.00052028   -17.03677774    10.46865199
     14      C   -14.05496182   -17.14029747     9.23443345
     15      F   -13.66389514   -18.48993117     9.06494193
     16      F   -14.77246733   -16.83425738     8.06986442
     17      H   -11.55223771   -14.81275943    11.91306864
     18      H    -9.82209795   -17.09421791     9.56245500
     19      H    -7.36575165   -17.46435767     9.54962850
     20      H    -5.95468729   -16.55549269    11.39333988
     21      H    -7.01833274   -15.25334937    13.23484584
     22      H    -9.47018932   -14.86952277    13.23172647
     23      H   -11.85706229   -17.86133605    11.78926669
     24      H   -11.43497021   -16.99573419    13.26695354
     25      H   -13.54089315   -16.01420951    13.54108144
     26      H   -13.86943455   -17.67450623    13.07545751
     27      H   -15.45689785   -15.99950375    12.26244818
     28      H   -14.24258687   -15.18381563    11.30235581
     29      H   -15.21367845   -18.06403564    10.78790586
     30      H   -15.93739879   -16.61085283    10.08998634

Total System Charge              0.00000

 *** GO1_GOStep7 ***

 Energy gradients wrt nuclear displacements
 ==========================================

     Atom      Cartesian (a.u./angstrom)
                 X         Y         Z
 ----------------------------------------
     1 C    -0.002130  0.000555 -0.003295
     2 C     0.004558 -0.000058  0.005108
     3 C     0.001785  0.000526 -0.005001
     4 C    -0.001898  0.002132  0.000466
     5 C    -0.000613 -0.002002  0.001657
     6 C    -0.000485  0.001279 -0.000504
     7 C    -0.000649 -0.000574  0.000329
     8 C    -0.000194 -0.000574 -0.000454
     9 C     0.000427 -0.000654 -0.000374
    10 C    -0.000991 -0.001709  0.002259
    11 C     0.000188  0.000157 -0.000550
    12 C     0.000095 -0.000831 -0.000276
    13 C     0.001421 -0.000220 -0.000754
    14 C    -0.001432  0.001109  0.002324
    15 F     0.000185  0.001155  0.000199
    16 F     0.000627 -0.001740  0.001664
    17 H    -0.000389 -0.000160  0.001513
    18 H    -0.000450  0.000106 -0.000979
    19 H     0.000293 -0.000146 -0.000861
    20 H     0.000647 -0.000346 -0.000105
    21 H     0.000450  0.000067  0.000463
    22 H    -0.000231  0.000333  0.000157
    23 H     0.000495 -0.000483 -0.000480
    24 H     0.000002  0.000813 -0.000640
    25 H    -0.000357  0.000074  0.000078
    26 H    -0.000300 -0.000672 -0.001366
    27 H    -0.000488 -0.000529  0.000429
    28 H     0.000112  0.000506 -0.000880
    29 H    -0.000514  0.000226 -0.000089
    30 H    -0.000163  0.001660 -0.000039
 ----------------------------------------

 dE(predicted):    -0.28494E-03, dE(actual):    -0.47974E-03, Trust radius:    0.800000, all in a.u.
 
----------------------------------------------------------------------
Geometry Convergence after Step   7       (Hartree/Angstrom,Angstrom)
----------------------------------------------------------------------
current energy                               -6.46619552 Hartree
energy change                      -0.00047974     0.00030000    F
constrained gradient max            0.00506569     0.00010000    F
constrained gradient rms            0.00130843     0.00006667    F
gradient max                        0.00506569
gradient rms                        0.00130843
cart. step max                      0.21290715     0.01000000    F
cart. step rms                      0.04905317     0.00666667    F
 

--------
Geometry
--------
Formula: C14H14F2
Atoms
  Index Symbol   x (angstrom)   y (angstrom)   z (angstrom)
      1      C   -12.86848746   -16.33254126     9.40371617
      2      C   -12.01415116   -15.93862740    10.16820583
      3      C   -11.31727924   -15.78077598    11.43983632
      4      C    -9.80911880   -15.96813762    11.39758419
      5      C    -9.20049743   -16.71000359    10.37348818
      6      C    -7.81791823   -16.92033745    10.37459792
      7      C    -7.02886531   -16.41291250    11.41366558
      8      C    -7.62924129   -15.67773494    12.44272013
      9      C    -9.00938494   -15.45081062    12.42840801
     10      C   -12.00378976   -16.88538170    12.34404875
     11      C   -13.50741701   -16.68210614    12.68738782
     12      C   -14.54800999   -16.16884703    11.65165736
     13      C   -14.97407907   -17.10278933    10.49840325
     14      C   -14.09191938   -17.10711647     9.21020548
     15      F   -13.75076062   -18.43658641     8.88326080
     16      F   -14.84649481   -16.65922960     8.11468378
     17      H   -11.54097063   -14.79510843    11.88002913
     18      H    -9.81094441   -17.10235656     9.56163972
     19      H    -7.35731640   -17.48588226     9.56552519
     20      H    -5.95287716   -16.58168515    11.41734471
     21      H    -7.02173114   -15.27140578    13.25031501
     22      H    -9.47080572   -14.87014484    13.22803318
     23      H   -11.83834283   -17.84384985    11.83674502
     24      H   -11.44194979   -16.91984119    13.28556466
     25      H   -13.55983171   -15.98762067    13.53800869
     26      H   -13.87248165   -17.64985065    13.06446692
     27      H   -15.45881836   -15.97722551    12.23773057
     28      H   -14.24956882   -15.19534291    11.24426142
     29      H   -15.02057747   -18.14013818    10.85054883
     30      H   -15.98216940   -16.82375999    10.17038738

Total System Charge              0.00000

 *** GO1_GOStep8 ***

 Energy gradients wrt nuclear displacements
 ==========================================

     Atom      Cartesian (a.u./angstrom)
                 X         Y         Z
 ----------------------------------------
     1 C    -0.001612  0.003999  0.000617
     2 C     0.004682 -0.000620  0.002422
     3 C     0.004676 -0.000481 -0.006107
     4 C    -0.004978  0.002936  0.002426
     5 C     0.000379 -0.002876  0.001352
     6 C    -0.001128  0.002126 -0.001127
     7 C    -0.000905 -0.000301  0.000679
     8 C    -0.000184 -0.001617 -0.000123
     9 C     0.001264  0.000309 -0.001756
    10 C    -0.002204 -0.001717  0.002261
    11 C    -0.001954  0.000865 -0.001055
    12 C     0.001731 -0.003399 -0.003315
    13 C     0.001544  0.003639  0.003900
    14 C    -0.003273 -0.002967  0.002175
    15 F     0.000407  0.001552  0.000166
    16 F     0.000808 -0.003240 -0.000356
    17 H    -0.000217  0.000283  0.003204
    18 H    -0.000370  0.000072 -0.001200
    19 H     0.000467 -0.000545 -0.000982
    20 H     0.001031 -0.000281 -0.000141
    21 H     0.000665  0.000302  0.000634
    22 H    -0.000556  0.000175  0.000513
    23 H     0.001285 -0.000729 -0.000494
    24 H     0.000053  0.002124 -0.001343
    25 H    -0.000258 -0.000763  0.000392
    26 H    -0.000697 -0.001603 -0.002610
    27 H    -0.000397  0.000060  0.000616
    28 H     0.000221  0.000668 -0.001641
    29 H    -0.000344  0.000763  0.000382
    30 H    -0.000137  0.001266  0.000511
 ----------------------------------------

 dE(predicted):    -0.39498E-03, dE(actual):    -0.59671E-03, Trust radius:    1.000000, all in a.u.
 
----------------------------------------------------------------------
Geometry Convergence after Step   8       (Hartree/Angstrom,Angstrom)
----------------------------------------------------------------------
current energy                               -6.46679223 Hartree
energy change                      -0.00059671     0.00030000    F
constrained gradient max            0.00611553     0.00010000    F
constrained gradient rms            0.00190569     0.00006667    F
gradient max                        0.00611553
gradient rms                        0.00190569
cart. step max                      0.21492617     0.01000000    F
cart. step rms                      0.05317054     0.00666667    F
 

--------
Geometry
--------
Formula: C14H14F2
Atoms
  Index Symbol   x (angstrom)   y (angstrom)   z (angstrom)
      1      C   -12.87395202   -16.31515733     9.40262510
      2      C   -12.00391260   -15.94388754    10.15876249
      3      C   -11.31165643   -15.77422978    11.43149879
      4      C    -9.80569070   -15.97286678    11.39748084
      5      C    -9.20233952   -16.75152298    10.39787160
      6      C    -7.82175345   -16.97368591    10.40746310
      7      C    -7.02871852   -16.43562735    11.42805646
      8      C    -7.62327678   -15.65903095    12.42974542
      9      C    -9.00335403   -15.43218436    12.41408407
     10      C   -12.00196705   -16.85608880    12.36163618
     11      C   -13.51221278   -16.66808318    12.69484269
     12      C   -14.56196522   -16.19624401    11.64737164
     13      C   -14.93669305   -17.16637371    10.50519330
     14      C   -14.11848534   -17.04321755     9.17867488
     15      F   -13.83815083   -18.33090355     8.68282944
     16      F   -14.91109425   -16.44430343     8.18531430
     17      H   -11.52952670   -14.77684588    11.84796811
     18      H    -9.81575799   -17.16474017     9.59864598
     19      H    -7.36484860   -17.56668546     9.61628069
     20      H    -5.95367696   -16.60947605    11.43603368
     21      H    -7.01204422   -15.22412707    13.21928720
     22      H    -9.45913251   -14.81454131    13.18882387
     23      H   -11.82410138   -17.82645157    11.88194738
     24      H   -11.44573778   -16.86078761    13.30709392
     25      H   -13.58205811   -15.96680785    13.53822538
     26      H   -13.85988420   -17.63850371    13.08136337
     27      H   -15.48015045   -16.02275564    12.22720766
     28      H   -14.29211552   -15.21983202    11.22873409
     29      H   -14.83579001   -18.20441236    10.84427435
     30      H   -15.98575298   -17.01877606    10.22313402

Total System Charge              0.00000

 *** GO1_GOStep9 ***

 Energy gradients wrt nuclear displacements
 ==========================================

     Atom      Cartesian (a.u./angstrom)
                 X         Y         Z
 ----------------------------------------
     1 C    -0.001651  0.005536  0.003193
     2 C     0.004818 -0.001710 -0.000539
     3 C     0.005664 -0.000664 -0.006888
     4 C    -0.005186  0.003959  0.001285
     5 C     0.000338 -0.002500  0.001202
     6 C    -0.001194  0.001558 -0.000915
     7 C    -0.000868 -0.000788  0.001112
     8 C     0.000108  0.000109 -0.001183
     9 C     0.000548 -0.002734  0.000470
    10 C    -0.001399 -0.001821  0.003336
    11 C    -0.002735  0.000755 -0.000292
    12 C     0.001873 -0.003804 -0.004028
    13 C     0.000000  0.004841  0.006589
    14 C    -0.000122 -0.003100 -0.000590
    15 F     0.000755  0.001627  0.000275
    16 F     0.000158 -0.003108 -0.000720
    17 H    -0.000217  0.000545  0.002739
    18 H    -0.000431 -0.000106 -0.001013
    19 H     0.000454 -0.000166 -0.001048
    20 H     0.000910 -0.000331 -0.000097
    21 H     0.000541  0.000527  0.000312
    22 H    -0.000319  0.000927 -0.000045
    23 H     0.001166 -0.000474 -0.000215
    24 H     0.000124  0.002221 -0.001232
    25 H    -0.000335 -0.001476  0.000807
    26 H    -0.000564 -0.001676 -0.003091
    27 H    -0.000338  0.000578  0.000901
    28 H    -0.000436  0.000050 -0.001461
    29 H    -0.001481  0.000472  0.000809
    30 H    -0.000182  0.000753  0.000325
 ----------------------------------------

 dE(predicted):    -0.13091E-02, dE(actual):    -0.13685E-02, Trust radius:    1.000000, all in a.u.
 
----------------------------------------------------------------------
Geometry Convergence after Step   9       (Hartree/Angstrom,Angstrom)
----------------------------------------------------------------------
current energy                               -6.46816073 Hartree
energy change                      -0.00136849     0.00030000    F
constrained gradient max            0.00688973     0.00010000    F
constrained gradient rms            0.00213860     0.00006667    F
gradient max                        0.00688973
gradient rms                        0.00213860
cart. step max                      0.21029399     0.01000000    F
cart. step rms                      0.05412902     0.00666667    F
 

--------
Geometry
--------
Formula: C14H14F2
Atoms
  Index Symbol   x (angstrom)   y (angstrom)   z (angstrom)
      1      C   -12.88232917   -16.29730841     9.39952682
      2      C   -11.99687319   -15.94834788    10.14700650
      3      C   -11.30797380   -15.76598867    11.42052249
      4      C    -9.80377666   -15.97595595    11.39458243
      5      C    -9.20564441   -16.78857470    10.41927837
      6      C    -7.82751592   -17.02455665    10.43941721
      7      C    -7.03085683   -16.45968979    11.44260790
      8      C    -7.61997122   -15.64653946    12.41826233
      9      C    -8.99866093   -15.41232931    12.39633936
     10      C   -12.00228058   -16.82418295    12.37546572
     11      C   -13.51826477   -16.65137411    12.70134516
     12      C   -14.57592161   -16.22704213    11.64028775
     13      C   -14.88759781   -17.23325738    10.50886697
     14      C   -14.14689692   -16.97888637     9.15491790
     15      F   -13.93621307   -18.20519604     8.50201376
     16      F   -14.97536148   -16.24551641     8.28711263
     17      H   -11.51906974   -14.75697045    11.81179499
     18      H    -9.82195164   -17.22113726     9.63262397
     19      H    -7.37481762   -17.64591594     9.66803260
     20      H    -5.95744642   -16.64187216    11.45737898
     21      H    -7.00602714   -15.19105130    13.19376805
     22      H    -9.44961150   -14.76517160    13.14941781
     23      H   -11.81393078   -17.80544574    11.92277389
     24      H   -11.45120102   -16.80056546    13.32372020
     25      H   -13.60596484   -15.93858996    13.53303079
     26      H   -13.84631264   -17.62188644    13.10438156
     27      H   -15.50325623   -16.07575707    12.21118510
     28      H   -14.33790632   -15.24780840    11.21039325
     29      H   -14.63452983   -18.25216197    10.82654960
     30      H   -15.95763592   -17.22907005    10.26986590

Total System Charge              0.00000

 *** GO1_GOStep10 ***

 Energy gradients wrt nuclear displacements
 ==========================================

     Atom      Cartesian (a.u./angstrom)
                 X         Y         Z
 ----------------------------------------
     1 C    -0.003289  0.006516  0.006686
     2 C     0.004967 -0.002918 -0.003016
     3 C     0.006405 -0.000839 -0.006909
     4 C    -0.005231  0.004082  0.000810
     5 C     0.000398 -0.001931  0.000588
     6 C    -0.001320  0.000890 -0.000584
     7 C    -0.000639 -0.000658  0.000890
     8 C     0.000085  0.000908 -0.001335
     9 C     0.000324 -0.003547  0.001517
    10 C    -0.000472 -0.001717  0.003698
    11 C    -0.003366  0.000338  0.000495
    12 C     0.002084 -0.002865 -0.005549
    13 C    -0.000681  0.003791  0.010930
    14 C     0.003334 -0.001467 -0.004679
    15 F     0.000922  0.000855  0.000855
    16 F    -0.000385 -0.002703 -0.002851
    17 H    -0.000183  0.000887  0.002173
    18 H    -0.000440 -0.000144 -0.000708
    19 H     0.000333  0.000006 -0.000916
    20 H     0.000710 -0.000289 -0.000059
    21 H     0.000327  0.000513  0.000160
    22 H    -0.000156  0.001232 -0.000288
    23 H     0.000924 -0.000089 -0.000079
    24 H     0.000086  0.002334 -0.001138
    25 H    -0.000682 -0.002087  0.001140
    26 H    -0.000315 -0.001733 -0.003198
    27 H    -0.000091  0.001127  0.001211
    28 H    -0.001136 -0.000194 -0.001309
    29 H    -0.002463 -0.000161  0.001424
    30 H    -0.000049 -0.000139  0.000043
 ----------------------------------------

 dE(predicted):    -0.18428E-02, dE(actual):    -0.14154E-02, Trust radius:    1.000000, all in a.u.
 
----------------------------------------------------------------------
Geometry Convergence after Step  10       (Hartree/Angstrom,Angstrom)
----------------------------------------------------------------------
current energy                               -6.46957612 Hartree
energy change                      -0.00141539     0.00030000    F
constrained gradient max            0.01086297     0.00010000    F
constrained gradient rms            0.00260468     0.00006667    F
gradient max                        0.01086297
gradient rms                        0.00260468
cart. step max                      0.21545229     0.01000000    F
cart. step rms                      0.06071799     0.00666667    F
 

--------
Geometry
--------
Formula: C14H14F2
Atoms
  Index Symbol   x (angstrom)   y (angstrom)   z (angstrom)
      1      C   -12.89667612   -16.28452716     9.38049609
      2      C   -11.99182208   -15.96825685    10.11986530
      3      C   -11.30597624   -15.77874597    11.39508791
      4      C    -9.80210540   -15.99160495    11.38391829
      5      C    -9.19742639   -16.84865263    10.45157953
      6      C    -7.81896139   -17.08202631    10.49158303
      7      C    -7.02893988   -16.47028849    11.47244662
      8      C    -7.62429255   -15.61081449    12.40323567
      9      C    -9.00308403   -15.38013286    12.36190089
     10      C   -12.00082576   -16.81483183    12.37495533
     11      C   -13.51829144   -16.64890963    12.70470283
     12      C   -14.58286343   -16.25995093    11.63764007
     13      C   -14.83818373   -17.28551173    10.50827484
     14      C   -14.19371334   -16.90057271     9.14075753
     15      F   -14.09313425   -18.03841324     8.32803582
     16      F   -15.05226538   -16.03006412     8.44683272
     17      H   -11.51316188   -14.76065055    11.76418476
     18      H    -9.80832819   -17.31850934     9.68200891
     19      H    -7.36077594   -17.73995503     9.75443129
     20      H    -5.95542021   -16.65000423    11.50243971
     21      H    -7.01504647   -15.11479570    13.15743583
     22      H    -9.45902309   -14.69622619    13.07863406
     23      H   -11.80700917   -17.80663833    11.94740991
     24      H   -11.44925802   -16.76494458    13.32188473
     25      H   -13.61257049   -15.92360303    13.52466487
     26      H   -13.83250043   -17.61659317    13.12526903
     27      H   -15.51812691   -16.12908140    12.20003108
     28      H   -14.36681167   -15.27815308    11.20247586
     29      H   -14.43935225   -18.26921866    10.78473979
     30      H   -15.90985385   -17.41647280    10.31554769

Total System Charge              0.00000

 *** GO1_GOStep11 ***

 Energy gradients wrt nuclear displacements
 ==========================================

     Atom      Cartesian (a.u./angstrom)
                 X         Y         Z
 ----------------------------------------
     1 C    -0.007240  0.006129  0.007885
     2 C     0.006917 -0.002999 -0.004146
     3 C     0.006175 -0.000905 -0.007403
     4 C    -0.005131  0.003623  0.000744
     5 C     0.000564 -0.001976  0.000525
     6 C    -0.001058  0.001407 -0.000987
     7 C    -0.000714 -0.000881  0.001324
     8 C     0.000200  0.000611 -0.001370
     9 C    -0.000052 -0.003816  0.001573
    10 C     0.000221 -0.001733  0.004368
    11 C    -0.003280  0.000175  0.000697
    12 C     0.001490 -0.001949 -0.006589
    13 C    -0.001304  0.003762  0.012582
    14 C     0.006311  0.000540 -0.006707
    15 F    -0.000628  0.000732 -0.000420
    16 F     0.000151 -0.002378 -0.000183
    17 H     0.000021  0.000951  0.001682
    18 H    -0.000294 -0.000282 -0.000554
    19 H     0.000427 -0.000164 -0.000860
    20 H     0.000783 -0.000229  0.000001
    21 H     0.000343  0.000752  0.000010
    22 H    -0.000153  0.001306 -0.000451
    23 H     0.001001 -0.000255 -0.000090
    24 H    -0.000135  0.002474 -0.000968
    25 H    -0.000940 -0.002297  0.001280
    26 H    -0.000287 -0.001917 -0.003340
    27 H    -0.000134  0.001277  0.001518
    28 H    -0.001041 -0.000421 -0.001393
    29 H    -0.002166 -0.000414  0.001455
    30 H    -0.000046 -0.001124 -0.000183
 ----------------------------------------

 dE(predicted):    -0.21721E-02, dE(actual):    -0.13718E-02, Trust radius:    1.000000, all in a.u.
 
----------------------------------------------------------------------
Geometry Convergence after Step  11       (Hartree/Angstrom,Angstrom)
----------------------------------------------------------------------
current energy                               -6.47094797 Hartree
energy change                      -0.00137185     0.00030000    F
constrained gradient max            0.01249267     0.00010000    F
constrained gradient rms            0.00297077     0.00006667    F
gradient max                        0.01249267
gradient rms                        0.00297077
cart. step max                      0.18565747     0.01000000    F
cart. step rms                      0.04295461     0.00666667    F
 

--------
Geometry
--------
Formula: C14H14F2
Atoms
  Index Symbol   x (angstrom)   y (angstrom)   z (angstrom)
      1      C   -12.88345992   -16.27733635     9.36197631
      2      C   -11.98101581   -15.97823055    10.11033264
      3      C   -11.31382975   -15.77813159    11.39640841
      4      C    -9.81073480   -15.99792941    11.39151397
      5      C    -9.21665956   -16.87946081    10.47603796
      6      C    -7.83978861   -17.12149136    10.51346333
      7      C    -7.03912531   -16.48489199    11.46926724
      8      C    -7.62366592   -15.59894196    12.38206067
      9      C    -9.00335249   -15.37087725    12.35277882
     10      C   -12.01387263   -16.79842674    12.39036815
     11      C   -13.53316844   -16.63554622    12.71697188
     12      C   -14.58983185   -16.28654145    11.63004378
     13      C   -14.77368554   -17.32703422    10.49834782
     14      C   -14.20142476   -16.85093957     9.13198087
     15      F   -14.16688949   -17.92125682     8.23211673
     16      F   -15.07305094   -15.90945934     8.55377100
     17      H   -11.51915304   -14.75317636    11.74677827
     18      H    -9.83456890   -17.35891808     9.71784410
     19      H    -7.38938732   -17.79380426     9.78476773
     20      H    -5.96590826   -16.66617841    11.49327880
     21      H    -7.00611724   -15.08700671    13.11847224
     22      H    -9.45083977   -14.66762782    13.05576010
     23      H   -11.81681999   -17.79733208    11.98131702
     24      H   -11.46512444   -16.73272255    13.33812661
     25      H   -13.63596257   -15.89100058    13.51847480
     26      H   -13.83894285   -17.59507460    13.16151569
     27      H   -15.54160260   -16.17446207    12.16743843
     28      H   -14.38699791   -15.30310037    11.19318440
     29      H   -14.25369479   -18.26001955    10.74846758
     30      H   -15.82712450   -17.58123090    10.32960464

Total System Charge              0.00000

 *** GO1_GOStep12 ***

 Energy gradients wrt nuclear displacements
 ==========================================

     Atom      Cartesian (a.u./angstrom)
                 X         Y         Z
 ----------------------------------------
     1 C    -0.005721  0.003768  0.009609
     2 C     0.007217 -0.005536 -0.009178
     3 C     0.004912  0.000153 -0.005571
     4 C    -0.005003  0.004258 -0.000952
     5 C    -0.000221 -0.001416  0.001000
     6 C    -0.001305 -0.000167  0.000358
     7 C    -0.000602 -0.000858  0.000943
     8 C     0.000334  0.002233 -0.002600
     9 C    -0.000216 -0.005095  0.003521
    10 C     0.000598 -0.001698  0.004598
    11 C    -0.003760  0.000444  0.001052
    12 C     0.000398 -0.002095 -0.006321
    13 C    -0.000914  0.003037  0.012415
    14 C     0.006153  0.001948 -0.007134
    15 F     0.000061  0.002249  0.001029
    16 F    -0.000186 -0.000817 -0.001888
    17 H     0.000008  0.001177  0.001633
    18 H    -0.000541  0.000016 -0.000774
    19 H     0.000332  0.000520 -0.001177
    20 H     0.000496 -0.000298 -0.000013
    21 H     0.000229  0.000488  0.000072
    22 H    -0.000092  0.001469 -0.000688
    23 H     0.000731 -0.000149  0.000094
    24 H    -0.000364  0.002276 -0.000639
    25 H    -0.000726 -0.002449  0.001708
    26 H    -0.000495 -0.001706 -0.003151
    27 H    -0.000265  0.001770  0.001638
    28 H    -0.000831 -0.000824 -0.001052
    29 H    -0.000767 -0.000148  0.001939
    30 H     0.000540 -0.002552 -0.000472
 ----------------------------------------

 dE(predicted):    -0.41869E-03, dE(actual):    -0.50729E-03, Trust radius:    1.000000, all in a.u.
 
----------------------------------------------------------------------
Geometry Convergence after Step  12       (Hartree/Angstrom,Angstrom)
----------------------------------------------------------------------
current energy                               -6.47145525 Hartree
energy change                      -0.00050729     0.00030000    F
constrained gradient max            0.01237197     0.00010000    F
constrained gradient rms            0.00311372     0.00006667    F
gradient max                        0.01237197
gradient rms                        0.00311372
cart. step max                      0.04330730     0.01000000    F
cart. step rms                      0.01427117     0.00666667    F
 

--------
Geometry
--------
Formula: C14H14F2
Atoms
  Index Symbol   x (angstrom)   y (angstrom)   z (angstrom)
      1      C   -12.88632198   -16.27550085     9.34972237
      2      C   -11.98697032   -15.98239588    10.10479335
      3      C   -11.31689035   -15.78255257    11.38924972
      4      C    -9.81219034   -15.99576875    11.38491678
      5      C    -9.21491886   -16.88928424    10.48283063
      6      C    -7.83822165   -17.13121422    10.52778014
      7      C    -7.04107252   -16.48581529    11.48066265
      8      C    -7.62817341   -15.58691925    12.37894938
      9      C    -9.00726050   -15.35646156    12.34027051
     10      C   -12.01142024   -16.80612177    12.38391378
     11      C   -13.52885837   -16.64194696    12.71849354
     12      C   -14.58504469   -16.29242374    11.63148217
     13      C   -14.76385816   -17.33150109    10.49668254
     14      C   -14.21481948   -16.83388815     9.12996813
     15      F   -14.21019680   -17.88435623     8.20617049
     16      F   -15.08838309   -15.86993202     8.59180428
     17      H   -11.52740126   -14.75945436    11.74141360
     18      H    -9.83169495   -17.38530069     9.73446691
     19      H    -7.38700764   -17.81992930     9.81516217
     20      H    -5.96869084   -16.67053831    11.51350501
     21      H    -7.01264452   -15.06481910    13.10977037
     22      H    -9.45583514   -14.64188160    13.03089803
     23      H   -11.81661004   -17.80429579    11.97236911
     24      H   -11.45618096   -16.74203868    13.32794753
     25      H   -13.62613001   -15.89403473    13.51743127
     26      H   -13.83429679   -17.59954495    13.16714933
     27      H   -15.53975485   -16.17783469    12.16245891
     28      H   -14.37683594   -15.30948873    11.19615453
     29      H   -14.21548817   -18.25116267    10.73506034
     30      H   -15.81262814   -17.61174382    10.34099243

Total System Charge              0.00000

 *** GO1_GOStep13 ***

 Energy gradients wrt nuclear displacements
 ==========================================

     Atom      Cartesian (a.u./angstrom)
                 X         Y         Z
 ----------------------------------------
     1 C    -0.004427  0.003745  0.008969
     2 C     0.006475 -0.005515 -0.007828
     3 C     0.004896  0.000441 -0.005439
     4 C    -0.004767  0.004619 -0.001019
     5 C     0.000250 -0.000993  0.000502
     6 C    -0.000939  0.000892 -0.000684
     7 C    -0.000623 -0.001170  0.001249
     8 C     0.000218  0.001718 -0.002094
     9 C    -0.000153 -0.005251  0.003783
    10 C     0.000517 -0.001730  0.004240
    11 C    -0.003684  0.000319  0.001317
    12 C     0.000230 -0.002291 -0.005712
    13 C    -0.002291  0.003305  0.011391
    14 C     0.005757  0.001599 -0.006707
    15 F    -0.000258  0.001245  0.000326
    16 F    -0.000738  0.000090 -0.001424
    17 H    -0.000273  0.000903  0.001597
    18 H    -0.000545 -0.000483 -0.000288
    19 H     0.000238 -0.000009 -0.000668
    20 H     0.000486 -0.000368  0.000042
    21 H     0.000244  0.000637 -0.000151
    22 H     0.000030  0.001580 -0.000897
    23 H     0.000725 -0.000043  0.000241
    24 H    -0.000079  0.002315 -0.000867
    25 H    -0.000470 -0.002354  0.001543
    26 H    -0.000546 -0.001641 -0.003069
    27 H    -0.000479  0.001826  0.000924
    28 H    -0.000484 -0.000851 -0.001041
    29 H    -0.000034  0.000424  0.002017
    30 H     0.000720 -0.002960 -0.000252
 ----------------------------------------

 dE(predicted):    -0.12841E-03, dE(actual):    -0.12968E-03, Trust radius:    1.000000, all in a.u.
 
----------------------------------------------------------------------
Geometry Convergence after Step  13       (Hartree/Angstrom,Angstrom)
----------------------------------------------------------------------
current energy                               -6.47158493 Hartree
energy change                      -0.00012968     0.00030000    T
constrained gradient max            0.01135571     0.00010000    F
constrained gradient rms            0.00291358     0.00006667    F
gradient max                        0.01135571
gradient rms                        0.00291358
cart. step max                      0.06207278     0.01000000    F
cart. step rms                      0.02160762     0.00666667    F
 

--------
Geometry
--------
Formula: C14H14F2
Atoms
  Index Symbol   x (angstrom)   y (angstrom)   z (angstrom)
      1      C   -12.88271052   -16.28732643     9.32222681
      2      C   -12.00328651   -15.99840294    10.10421027
      3      C   -11.32459723   -15.80639164    11.38400297
      4      C    -9.81579365   -16.00124721    11.37871949
      5      C    -9.20662615   -16.90666644    10.49562597
      6      C    -7.82771467   -17.13404204    10.54923304
      7      C    -7.04016528   -16.46580474    11.49467797
      8      C    -7.63910901   -15.55761524    12.37539207
      9      C    -9.01898068   -15.33473727    12.32239138
     10      C   -12.00703138   -16.84710513    12.36866263
     11      C   -13.51592527   -16.66136154    12.72258685
     12      C   -14.56398814   -16.28298354    11.63869057
     13      C   -14.77516844   -17.31051541    10.49666206
     14      C   -14.23078170   -16.82514595     9.12577661
     15      F   -14.25915813   -17.87433911     8.19851286
     16      F   -15.09380414   -15.84428453     8.60016860
     17      H   -11.54891075   -14.79257481    11.75284601
     18      H    -9.81537284   -17.42231686     9.75419074
     19      H    -7.36753821   -17.83144482     9.85106983
     20      H    -5.96665044   -16.64199244    11.53658071
     21      H    -7.03159365   -15.01963068    13.10109834
     22      H    -9.47589221   -14.61365058    13.00044976
     23      H   -11.82809319   -17.83974367    11.93796687
     24      H   -11.43458852   -16.80411146    13.30347125
     25      H   -13.58692490   -15.90700477    13.51805888
     26      H   -13.83677145   -17.61120199    13.17619907
     27      H   -15.51982804   -16.13802819    12.15862718
     28      H   -14.31828759   -15.30674687    11.20768512
     29      H   -14.23060139   -18.23459082    10.72619067
     30      H   -15.82990592   -17.57714287    10.36049543

Total System Charge              0.00000

 *** GO1_GOStep14 ***

 Energy gradients wrt nuclear displacements
 ==========================================

     Atom      Cartesian (a.u./angstrom)
                 X         Y         Z
 ----------------------------------------
     1 C     0.000793  0.004921  0.003436
     2 C     0.003572 -0.004533 -0.002758
     3 C     0.004714  0.001718 -0.005704
     4 C    -0.004176  0.004389 -0.000098
     5 C     0.001051 -0.001783  0.000503
     6 C    -0.000783  0.000786 -0.000970
     7 C    -0.000347 -0.000652  0.001118
     8 C     0.000036  0.000797 -0.001026
     9 C     0.000323 -0.003703  0.002577
    10 C     0.000081 -0.002118  0.003413
    11 C    -0.003392  0.000410  0.001659
    12 C     0.000959 -0.003780 -0.002401
    13 C    -0.006838  0.005469  0.008217
    14 C     0.003292 -0.001686 -0.003337
    15 F    -0.000437  0.000022 -0.001945
    16 F    -0.001432  0.000059 -0.000908
    17 H    -0.000976  0.000063  0.001877
    18 H    -0.000273 -0.000359 -0.000315
    19 H     0.000257 -0.000054 -0.000568
    20 H     0.000530 -0.000326  0.000074
    21 H     0.000193  0.000448 -0.000223
    22 H     0.000183  0.001313 -0.000754
    23 H     0.000960  0.000088  0.000702
    24 H     0.000583  0.002235 -0.001408
    25 H     0.000295 -0.001812  0.000779
    26 H    -0.000466 -0.001437 -0.002837
    27 H    -0.000914  0.001589 -0.001157
    28 H     0.000709 -0.000997 -0.000744
    29 H     0.001309  0.001795  0.001858
    30 H     0.000196 -0.002862  0.000941
 ----------------------------------------

 dE(predicted):    -0.34092E-03, dE(actual):    -0.33412E-03, Trust radius:    1.000000, all in a.u.
 
----------------------------------------------------------------------
Geometry Convergence after Step  14       (Hartree/Angstrom,Angstrom)
----------------------------------------------------------------------
current energy                               -6.47191905 Hartree
energy change                      -0.00033412     0.00030000    F
constrained gradient max            0.00817358     0.00010000    F
constrained gradient rms            0.00232241     0.00006667    F
gradient max                        0.00817358
gradient rms                        0.00232241
cart. step max                      0.04459441     0.01000000    F
cart. step rms                      0.01201023     0.00666667    F
 

--------
Geometry
--------
Formula: C14H14F2
Atoms
  Index Symbol   x (angstrom)   y (angstrom)   z (angstrom)
      1      C   -12.87404688   -16.28809960     9.31755555
      2      C   -12.01069176   -16.00218307    10.12028533
      3      C   -11.32809502   -15.82022924    11.39838077
      4      C    -9.81837252   -16.01124624    11.38799867
      5      C    -9.20917349   -16.91994139    10.50855730
      6      C    -7.82791874   -17.13443351    10.55344778
      7      C    -7.03887834   -16.45054769    11.48659912
      8      C    -7.63853267   -15.53932246    12.36359269
      9      C    -9.02015483   -15.32611196    12.31667742
     10      C   -12.01353192   -16.87029453    12.36864724
     11      C   -13.51787430   -16.66505450    12.72411283
     12      C   -14.55336801   -16.27717382    11.63343780
     13      C   -14.76897391   -17.30678184    10.49334028
     14      C   -14.23023753   -16.81807546     9.12569519
     15      F   -14.26649903   -17.86681988     8.19828216
     16      F   -15.08843282   -15.83221851     8.60255489
     17      H   -11.55303183   -14.81096905    11.77890370
     18      H    -9.81906587   -17.44762840     9.77666994
     19      H    -7.36755236   -17.83728041     9.86092156
     20      H    -5.96362682   -16.61732041    11.52197277
     21      H    -7.03025315   -14.99054070    13.08054112
     22      H    -9.47910413   -14.60684677    12.99523830
     23      H   -11.84783852   -17.85805705    11.92175010
     24      H   -11.43903949   -16.84870587    13.30303169
     25      H   -13.58003909   -15.90142167    13.51170499
     26      H   -13.85043887   -17.60665485    13.18608741
     27      H   -15.51110844   -16.11864957    12.14520367
     28      H   -14.29229427   -15.30499991    11.20143035
     29      H   -14.23155128   -18.23637616    10.71867267
     30      H   -15.82607410   -17.56416552    10.36117671

Total System Charge              0.00000

 *** GO1_GOStep15 ***

 Energy gradients wrt nuclear displacements
 ==========================================

     Atom      Cartesian (a.u./angstrom)
                 X         Y         Z
 ----------------------------------------
     1 C     0.001814  0.004198  0.000029
     2 C     0.002876 -0.004239  0.002237
     3 C     0.005138  0.002404 -0.005359
     4 C    -0.003448  0.002858  0.000852
     5 C     0.000892 -0.001664  0.000418
     6 C    -0.000770  0.001183 -0.001420
     7 C    -0.000272 -0.000562  0.001204
     8 C    -0.000121  0.000413 -0.000599
     9 C     0.000447 -0.002025  0.001170
    10 C    -0.000399 -0.002327  0.001894
    11 C    -0.003893 -0.000188  0.001218
    12 C     0.002097 -0.002301 -0.003080
    13 C    -0.004230  0.003085  0.006369
    14 C    -0.001097 -0.000878 -0.000676
    15 F    -0.000433  0.000043 -0.000821
    16 F    -0.001723  0.000431 -0.001727
    17 H    -0.001016 -0.000097  0.001945
    18 H    -0.000247 -0.000358 -0.000374
    19 H     0.000183 -0.000313 -0.000338
    20 H     0.000536 -0.000209  0.000043
    21 H     0.000187  0.000423 -0.000138
    22 H     0.000070  0.000843 -0.000282
    23 H     0.001075  0.000102  0.000502
    24 H     0.000586  0.002067 -0.001345
    25 H    -0.000159 -0.001307  0.000317
    26 H     0.000026 -0.001395 -0.002418
    27 H    -0.000599  0.001533 -0.001506
    28 H     0.000955 -0.000246 -0.000956
    29 H     0.000882  0.000659  0.001682
    30 H     0.000641 -0.002131  0.001156
 ----------------------------------------

 dE(predicted):    -0.17120E-03, dE(actual):    -0.22725E-03, Trust radius:    1.000000, all in a.u.
 
----------------------------------------------------------------------
Geometry Convergence after Step  15       (Hartree/Angstrom,Angstrom)
----------------------------------------------------------------------
current energy                               -6.47214630 Hartree
energy change                      -0.00022725     0.00030000    T
constrained gradient max            0.00632761     0.00010000    F
constrained gradient rms            0.00186614     0.00006667    F
gradient max                        0.00632761
gradient rms                        0.00186614
cart. step max                      0.03064037     0.01000000    F
cart. step rms                      0.01052813     0.00666667    F
 

--------
Geometry
--------
Formula: C14H14F2
Atoms
  Index Symbol   x (angstrom)   y (angstrom)   z (angstrom)
      1      C   -12.85799499   -16.28283319     9.31433918
      2      C   -12.01174004   -15.99113185    10.13433552
      3      C   -11.33257460   -15.82020992    11.41584140
      4      C    -9.82311089   -16.01167979    11.39623798
      5      C    -9.22052840   -16.91993357    10.51238064
      6      C    -7.83864116   -17.13187897    10.54597712
      7      C    -7.04302190   -16.44567478    11.47168514
      8      C    -7.63732159   -15.53937897    12.35728094
      9      C    -9.01878475   -15.32294994    12.31639763
     10      C   -12.02236772   -16.87825181    12.37088162
     11      C   -13.52141227   -16.65687454    12.72711885
     12      C   -14.55186716   -16.27583175    11.63275149
     13      C   -14.75646949   -17.30469093    10.49009731
     14      C   -14.21309601   -16.82465159     9.12592910
     15      F   -14.23585866   -17.88126227     8.20794924
     16      F   -15.07170311   -15.84934211     8.58881348
     17      H   -11.55272114   -14.81436423    11.80872554
     18      H    -9.83535135   -17.44839186     9.78524604
     19      H    -7.38267967   -17.83445104     9.85006065
     20      H    -5.96709799   -16.61039894    11.49790562
     21      H    -7.02466402   -14.99379006    13.07327161
     22      H    -9.47560119   -14.61103746    13.00419845
     23      H   -11.86806902   -17.86079702    11.90791107
     24      H   -11.44959902   -16.87885505    13.30672357
     25      H   -13.57790498   -15.88173368    13.50449442
     26      H   -13.86011603   -17.58968360    13.20258381
     27      H   -15.51165226   -16.12309321    12.14273143
     28      H   -14.29375316   -15.30191268    11.20234983
     29      H   -14.22567505   -18.23785428    10.71586298
     30      H   -15.81442240   -17.55521089    10.35238833

Total System Charge              0.00000

 *** GO1_GOStep16 ***

 Energy gradients wrt nuclear displacements
 ==========================================

     Atom      Cartesian (a.u./angstrom)
                 X         Y         Z
 ----------------------------------------
     1 C     0.002541  0.004507 -0.003652
     2 C     0.003486 -0.004258  0.003693
     3 C     0.004325  0.001513 -0.003717
     4 C    -0.003376  0.002294  0.000782
     5 C     0.000329 -0.001346  0.000577
     6 C    -0.000911  0.001057 -0.000886
     7 C    -0.000427  0.000154  0.000374
     8 C    -0.000304 -0.000933  0.000313
     9 C     0.000539  0.000086 -0.001048
    10 C    -0.001080 -0.001968  0.001227
    11 C    -0.004008  0.000886 -0.000210
    12 C     0.002219 -0.002840 -0.001911
    13 C    -0.001650  0.004279  0.004207
    14 C    -0.005230 -0.003657  0.001867
    15 F     0.000200  0.001150 -0.000112
    16 F    -0.000095 -0.000900 -0.001162
    17 H    -0.000514  0.000197  0.002454
    18 H    -0.000238 -0.000270 -0.000506
    19 H     0.000214 -0.000515 -0.000348
    20 H     0.000639 -0.000102 -0.000049
    21 H     0.000305  0.000395  0.000193
    22 H    -0.000212  0.000315  0.000255
    23 H     0.001311 -0.000090  0.000054
    24 H     0.000040  0.001627 -0.000920
    25 H    -0.000516 -0.000862  0.000378
    26 H     0.000148 -0.001378 -0.002208
    27 H    -0.000330  0.001456 -0.000602
    28 H     0.001124 -0.000137 -0.000884
    29 H     0.000818  0.000481  0.000502
    30 H     0.000654 -0.001142  0.001338
 ----------------------------------------

 dE(predicted):    -0.15676E-03, dE(actual):    -0.29574E-03, Trust radius:    1.000000, all in a.u.
 
----------------------------------------------------------------------
Geometry Convergence after Step  16       (Hartree/Angstrom,Angstrom)
----------------------------------------------------------------------
current energy                               -6.47244203 Hartree
energy change                      -0.00029574     0.00030000    T
constrained gradient max            0.00521702     0.00010000    F
constrained gradient rms            0.00182858     0.00006667    F
gradient max                        0.00521702
gradient rms                        0.00182858
cart. step max                      0.03703265     0.01000000    F
cart. step rms                      0.01451465     0.00666667    F
 

--------
Geometry
--------
Formula: C14H14F2
Atoms
  Index Symbol   x (angstrom)   y (angstrom)   z (angstrom)
      1      C   -12.85007759   -16.26791235     9.32407855
      2      C   -12.01389620   -15.96837432    10.15121251
      3      C   -11.33386577   -15.80843646    11.43300472
      4      C    -9.82531945   -16.00945853    11.40614575
      5      C    -9.23356855   -16.91873227    10.51642047
      6      C    -7.85208270   -17.13512840    10.53778282
      7      C    -7.04673553   -16.45501133    11.45929774
      8      C    -7.63036626   -15.54916303    12.35226456
      9      C    -9.01123208   -15.32576979    12.32114604
     10      C   -12.03128816   -16.86981070    12.37406380
     11      C   -13.52696891   -16.63805013    12.72617925
     12      C   -14.56126933   -16.28442470    11.62709795
     13      C   -14.73658384   -17.31982256    10.48516440
     14      C   -14.19762133   -16.82747318     9.12863330
     15      F   -14.20388463   -17.88270843     8.20991066
     16      F   -15.06404718   -15.86225940     8.58997634
     17      H   -11.54397544   -14.80371013    11.83451448
     18      H    -9.85462870   -17.43622615     9.78671313
     19      H    -7.40313095   -17.83194123     9.83137314
     20      H    -5.97104689   -16.62290704    11.47561140
     21      H    -7.01041435   -15.01140892    13.06825609
     22      H    -9.46163507   -14.61718719    13.01667213
     23      H   -11.88635607   -17.84922563    11.90040412
     24      H   -11.46303333   -16.88696222    13.31264172
     25      H   -13.58285781   -15.84470104    13.48575171
     26      H   -13.86497530   -17.55887135    13.22566994
     27      H   -15.52426194   -16.15691068    12.13841990
     28      H   -14.32866391   -15.30460850    11.19460744
     29      H   -14.19216173   -18.24469522    10.71124448
     30      H   -15.78985098   -17.58625914    10.33821146

Total System Charge              0.00000

 *** GO1_GOStep17 ***

 Energy gradients wrt nuclear displacements
 ==========================================

     Atom      Cartesian (a.u./angstrom)
                 X         Y         Z
 ----------------------------------------
     1 C     0.002887  0.004706 -0.002888
     2 C     0.002569 -0.004645  0.004370
     3 C     0.003256  0.000545 -0.002758
     4 C    -0.003250  0.002405  0.000835
     5 C    -0.000327 -0.002091  0.001805
     6 C    -0.000776  0.000910 -0.000313
     7 C    -0.000727 -0.000062  0.000224
     8 C    -0.000085 -0.000769 -0.000134
     9 C     0.000703  0.000771 -0.002026
    10 C    -0.001234 -0.000949  0.000382
    11 C    -0.003224  0.001080 -0.002057
    12 C     0.002346 -0.002106 -0.002357
    13 C     0.001793  0.003153  0.002234
    14 C    -0.007878 -0.003979  0.003173
    15 F    -0.000236  0.001791  0.001425
    16 F     0.001277 -0.001716 -0.000955
    17 H    -0.000025  0.000546  0.002445
    18 H    -0.000145  0.000230 -0.000948
    19 H     0.000383 -0.000230 -0.000779
    20 H     0.000692 -0.000050 -0.000110
    21 H     0.000458  0.000248  0.000598
    22 H    -0.000513 -0.000019  0.000498
    23 H     0.000965 -0.000488 -0.000367
    24 H    -0.000229  0.001437 -0.000796
    25 H    -0.000649 -0.000549  0.000521
    26 H     0.000037 -0.001453 -0.001713
    27 H    -0.000100  0.001166  0.000362
    28 H     0.000899  0.000445 -0.001227
    29 H     0.000698  0.000288 -0.000176
    30 H     0.000434 -0.000616  0.000732
 ----------------------------------------

 dE(predicted):    -0.13476E-03, dE(actual):    -0.30606E-03, Trust radius:    1.000000, all in a.u.
 
----------------------------------------------------------------------
Geometry Convergence after Step  17       (Hartree/Angstrom,Angstrom)
----------------------------------------------------------------------
current energy                               -6.47274809 Hartree
energy change                      -0.00030606     0.00030000    F
constrained gradient max            0.00787187     0.00010000    F
constrained gradient rms            0.00186628     0.00006667    F
gradient max                        0.00787187
gradient rms                        0.00186628
cart. step max                      0.05716209     0.01000000    F
cart. step rms                      0.01870590     0.00666667    F
 

--------
Geometry
--------
Formula: C14H14F2
Atoms
  Index Symbol   x (angstrom)   y (angstrom)   z (angstrom)
      1      C   -12.84536503   -16.24868984     9.33381063
      2      C   -12.01596069   -15.93276093    10.16078826
      3      C   -11.33495334   -15.78596338    11.44304252
      4      C    -9.82730782   -15.99808340    11.40881373
      5      C    -9.24694344   -16.90434608    10.50864979
      6      C    -7.86765799   -17.13464076    10.52398828
      7      C    -7.05352991   -16.47361007    11.45159590
      8      C    -7.62567254   -15.57140395    12.35551844
      9      C    -9.00371907   -15.32984608    12.32666818
     10      C   -12.03603797   -16.85152130    12.37291888
     11      C   -13.52798960   -16.61551871    12.72552892
     12      C   -14.57614665   -16.30035107    11.62680084
     13      C   -14.71731235   -17.33792807    10.48124857
     14      C   -14.17945739   -16.83281259     9.13174244
     15      F   -14.15962192   -17.88742053     8.21256249
     16      F   -15.05931773   -15.88454423     8.58731276
     17      H   -11.53489766   -14.78317608    11.85438366
     18      H    -9.87567943   -17.41273113     9.77899481
     19      H    -7.42856296   -17.83500807     9.81471808
     20      H    -5.98001215   -16.65537067    11.46593960
     21      H    -6.99828663   -15.04652135    13.07483071
     22      H    -9.44591046   -14.62277002    13.02910436
     23      H   -11.89771496   -17.82814264    11.89050377
     24      H   -11.46990943   -16.88170524    13.31267222
     25      H   -13.58289277   -15.80039043    13.46252551
     26      H   -13.85931821   -17.52178159    13.25601596
     27      H   -15.54090939   -16.21407276    12.14393756
     28      H   -14.38444807   -15.31116588    11.19491057
     29      H   -14.15584912   -18.25131828    10.71009893
     30      H   -15.76441532   -17.62455485    10.32284362

Total System Charge              0.00000

 *** GO1_GOStep18 ***

 Energy gradients wrt nuclear displacements
 ==========================================

     Atom      Cartesian (a.u./angstrom)
                 X         Y         Z
 ----------------------------------------
     1 C     0.002421  0.003952 -0.002224
     2 C     0.002240 -0.004005  0.003461
     3 C     0.001444 -0.000681 -0.002193
[...]
    17)   H                   1.08547705
    18)   H                   1.10017251
    19)   H                   1.10092741
    20)   H                   1.10056815
    21)   H                   1.09901671
    22)   H                   1.09477674
    23)   H                   1.10879314
    24)   H                   1.10591962
    25)   H                   1.11253646
    26)   H                   1.11187337
    27)   H                   1.11442217
    28)   H                   1.11484934
    29)   H                   1.09765125
    30)   H                   1.10153241
 Mulliken charges used for AMS results%charges...


    =====================
     CALCULATION RESULTS
    =====================

Energy (hartree)            -6.47353472

Gradients (hartree/bohr)
  Index   Atom            d/dx            d/dy            d/dz
      1      C   -0.0000077114   -0.0000161081   -0.0000037491
      2      C    0.0000016220   -0.0000252812   -0.0000101148
      3      C   -0.0000037741    0.0000100595    0.0000032464
      4      C    0.0000039388   -0.0000075855   -0.0000117737
      5      C   -0.0000012532   -0.0000099003    0.0000026526
      6      C   -0.0000014845   -0.0000126431    0.0000041977
      7      C    0.0000003555    0.0000002400   -0.0000082415
      8      C    0.0000029466    0.0000058786   -0.0000107324
      9      C   -0.0000001204    0.0000139642   -0.0000202322
     10      C    0.0000115252    0.0000060184   -0.0000051090
     11      C   -0.0000088279    0.0000170348    0.0000187933
     12      C   -0.0000080682    0.0000179549   -0.0000050804
     13      C    0.0000035832   -0.0000075124   -0.0000108034
     14      C   -0.0000137432   -0.0000259014    0.0000279505
     15      F   -0.0000047105   -0.0000360442    0.0000176431
     16      F    0.0000020783   -0.0000302889   -0.0000041526
     17      H    0.0000047598    0.0000081111   -0.0000224478
     18      H   -0.0000030819   -0.0000194136    0.0000091169
     19      H   -0.0000024122   -0.0000228340    0.0000119142
     20      H   -0.0000000229   -0.0000056457   -0.0000040124
     21      H    0.0000028683    0.0000174369   -0.0000209716
     22      H    0.0000058311    0.0000178868   -0.0000212179
     23      H   -0.0000012491    0.0000109262    0.0000165188
     24      H    0.0000003419    0.0000253841    0.0000087285
     25      H    0.0000036393    0.0000280105   -0.0000120962
     26      H    0.0000042934    0.0000305188    0.0000102755
     27      H    0.0000039061    0.0000147817    0.0000029520
     28      H    0.0000048144    0.0000015138   -0.0000082203
     29      H   -0.0000001419   -0.0000029898    0.0000222536
     30      H    0.0000000975   -0.0000035723    0.0000227121


--------------
Atomic charges
--------------
  Index   Atom    Charge
      1      C   -0.0750
      2      C   -0.0100
      3      C    0.1647
      4      C   -0.0053
      5      C    0.2548
      6      C    0.2159
      7      C    0.2103
      8      C    0.2166
      9      C    0.2434
     10      C    0.4461
     11      C    0.4448
     12      C    0.3919
     13      C    0.3877
     14      C    0.8203
     15      F   -0.4242
     16      F   -0.4206
     17      H   -0.1668
     18      H   -0.2134
     19      H   -0.2187
     20      H   -0.2145
     21      H   -0.2183
     22      H   -0.2353
     23      H   -0.1943
     24      H   -0.1951
     25      H   -0.2109
     26      H   -0.2059
     27      H   -0.2000
     28      H   -0.1943
     29      H   -0.2044
     30      H   -0.1893


Dipole moment vector    (Debye):     1.33048955   -0.17290667    4.20348694
              magnitude (Debye):     4.41241449


-----------------------
Molecular orbitals info
-----------------------
n orbitals:              570
n spin:                    1

Note: only printing virtual orbitals with
      energy smaller than HOMO + 100. eV

HOMO (eV):              -6.2673
LUMO (eV):              -1.6439
HOMO-LUMO gap (eV):      4.6234

   Index   Energy (eV)    Occupation
     359       93.3772         0.000       
     358       93.1100         0.000       
     357       92.7973         0.000       
     356       92.5498         0.000       
     355       92.4468         0.000       
     354       92.2882         0.000       
     353       92.0334         0.000       
     352       91.5887         0.000       
     351       91.0090         0.000       
     350       90.8135         0.000       
     349       90.3864         0.000       
     348       89.5007         0.000       
     347       88.9176         0.000       
     346       88.6251         0.000       
     345       88.3559         0.000       
     344       87.8570         0.000       
     343       87.7708         0.000       
     342       87.4711         0.000       
     341       87.1768         0.000       
     340       86.5313         0.000       
     339       86.1556         0.000       
     338       85.8485         0.000       
     337       85.5310         0.000       
     336       85.0373         0.000       
     335       84.6184         0.000       
     334       84.0536         0.000       
     333       83.3809         0.000       
     332       83.0653         0.000       
     331       82.7193         0.000       
     330       82.1630         0.000       
     329       81.8905         0.000       
     328       81.5042         0.000       
     327       81.4044         0.000       
     326       80.7998         0.000       
     325       80.7328         0.000       
     324       80.1676         0.000       
     323       79.9617         0.000       
     322       79.8734         0.000       
     321       79.6691         0.000       
     320       79.3013         0.000       
     319       79.2376         0.000       
     318       78.8701         0.000       
     317       78.5274         0.000       
     316       78.2521         0.000       
     315       77.6444         0.000       
     314       77.4982         0.000       
     313       77.1784         0.000       
     312       76.5910         0.000       
     311       75.9864         0.000       
     310       75.4922         0.000       
     309       74.8534         0.000       
     308       74.6327         0.000       
     307       74.4814         0.000       
     306       73.7739         0.000       
     305       73.4960         0.000       
     304       73.4765         0.000       
     303       73.0482         0.000       
     302       72.4427         0.000       
     301       71.9611         0.000       
     300       71.7502         0.000       
     299       71.3525         0.000       
     298       71.0304         0.000       
     297       69.7302         0.000       
     296       69.3257         0.000       
     295       68.9473         0.000       
     294       68.5354         0.000       
     293       68.2962         0.000       
     292       67.9404         0.000       
     291       66.8608         0.000       
     290       66.5041         0.000       
     289       66.0599         0.000       
     288       65.7174         0.000       
     287       65.1465         0.000       
     286       64.7631         0.000       
     285       64.5061         0.000       
     284       64.1277         0.000       
     283       63.7773         0.000       
     282       63.6314         0.000       
     281       62.9654         0.000       
     280       62.8044         0.000       
     279       62.3376         0.000       
     278       62.2161         0.000       
     277       61.7794         0.000       
     276       61.3804         0.000       
     275       60.5739         0.000       
     274       60.3159         0.000       
     273       59.6979         0.000       
     272       59.3012         0.000       
     271       59.2437         0.000       
     270       58.4723         0.000       
     269       58.1873         0.000       
     268       57.6202         0.000       
     267       56.0783         0.000       
     266       55.9046         0.000       
     265       55.5147         0.000       
     264       55.2749         0.000       
     263       54.7759         0.000       
     262       54.6959         0.000       
     261       54.0876         0.000       
     260       53.4932         0.000       
     259       53.1738         0.000       
     258       52.9076         0.000       
     257       52.8319         0.000       
     256       52.4305         0.000       
     255       52.1189         0.000       
     254       51.5998         0.000       
     253       51.4635         0.000       
     252       50.8743         0.000       
     251       50.6888         0.000       
     250       50.5199         0.000       
     249       50.3028         0.000       
     248       50.2717         0.000       
     247       49.8399         0.000       
     246       49.5668         0.000       
     245       49.3068         0.000       
     244       48.9662         0.000       
     243       48.4168         0.000       
     242       48.3432         0.000       
     241       47.6133         0.000       
     240       47.4575         0.000       
     239       46.5450         0.000       
     238       45.8477         0.000       
     237       45.7342         0.000       
     236       45.5235         0.000       
     235       44.8033         0.000       
     234       44.4632         0.000       
     233       44.1585         0.000       
     232       43.9410         0.000       
     231       43.2961         0.000       
     230       43.1841         0.000       
     229       42.8603         0.000       
     228       42.0850         0.000       
     227       41.7592         0.000       
     226       41.2424         0.000       
     225       40.7395         0.000       
     224       40.5524         0.000       
     223       40.2084         0.000       
     222       39.9863         0.000       
     221       39.7751         0.000       
     220       39.5800         0.000       
     219       39.2429         0.000       
     218       38.9661         0.000       
     217       38.7928         0.000       
     216       38.3306         0.000       
     215       37.9942         0.000       
     214       37.6108         0.000       
     213       37.4168         0.000       
     212       37.1624         0.000       
     211       36.9999         0.000       
     210       36.6721         0.000       
     209       36.3046         0.000       
     208       36.2812         0.000       
     207       35.9341         0.000       
     206       35.7937         0.000       
     205       35.5364         0.000       
     204       35.0794         0.000       
     203       34.9893         0.000       
     202       34.7264         0.000       
     201       34.5929         0.000       
     200       34.4807         0.000       
     199       33.9972         0.000       
     198       33.8240         0.000       
     197       33.6656         0.000       
     196       33.2003         0.000       
     195       33.0241         0.000       
     194       32.7022         0.000       
     193       32.3846         0.000       
     192       31.7950         0.000       
     191       31.5491         0.000       
     190       31.3697         0.000       
     189       31.0810         0.000       
     188       30.5741         0.000       
     187       30.2840         0.000       
     186       30.0223         0.000       
     185       29.6542         0.000       
     184       29.3147         0.000       
     183       29.1073         0.000       
     182       28.8684         0.000       
     181       28.4517         0.000       
     180       28.0902         0.000       
     179       28.0399         0.000       
     178       27.6710         0.000       
     177       27.3328         0.000       
     176       26.8177         0.000       
     175       26.6882         0.000       
     174       26.4908         0.000       
     173       26.1502         0.000       
     172       25.8020         0.000       
     171       25.6686         0.000       
     170       25.1244         0.000       
     169       24.7981         0.000       
     168       24.4164         0.000       
     167       24.1772         0.000       
     166       23.7120         0.000       
     165       23.4787         0.000       
     164       23.2753         0.000       
     163       22.7358         0.000       
     162       22.4836         0.000       
     161       22.1053         0.000       
     160       21.5963         0.000       
     159       21.3252         0.000       
     158       21.0787         0.000       
     157       20.9357         0.000       
     156       20.6561         0.000       
     155       20.5983         0.000       
     154       20.1924         0.000       
     153       19.9575         0.000       
     152       19.7019         0.000       
     151       19.3464         0.000       
     150       19.0732         0.000       
     149       18.4143         0.000       
     148       17.9468         0.000       
     147       17.6219         0.000       
     146       17.3860         0.000       
     145       17.1297         0.000       
     144       16.9058         0.000       
     143       16.7319         0.000       
     142       15.7139         0.000       
     141       15.3764         0.000       
     140       15.2466         0.000       
     139       14.9749         0.000       
     138       14.3998         0.000       
     137       14.0559         0.000       
     136       13.8865         0.000       
     135       13.5612         0.000       
     134       13.3815         0.000       
     133       12.8714         0.000       
     132       12.7572         0.000       
     131       12.5148         0.000       
     130       12.4449         0.000       
     129       11.9927         0.000       
     128       11.8919         0.000       
     127       11.6884         0.000       
     126       11.5392         0.000       
     125       11.2663         0.000       
     124       10.9607         0.000       
     123       10.7235         0.000       
     122       10.5113         0.000       
     121       10.3793         0.000       
     120       10.2789         0.000       
     119       10.0309         0.000       
     118        9.7454         0.000       
     117        9.6752         0.000       
     116        9.4534         0.000       
     115        9.2886         0.000       
     114        9.2712         0.000       
     113        8.9164         0.000       
     112        8.8843         0.000       
     111        8.6425         0.000       
     110        8.5342         0.000       
     109        8.4190         0.000       
     108        8.3896         0.000       
     107        8.0456         0.000       
     106        7.9368         0.000       
     105        7.8370         0.000       
     104        7.5379         0.000       
     103        7.2440         0.000       
     102        7.0619         0.000       
     101        6.9785         0.000       
     100        6.6471         0.000       
      99        6.3765         0.000       
      98        6.1222         0.000       
      97        5.9324         0.000       
      96        5.7164         0.000       
      95        5.5063         0.000       
      94        5.4362         0.000       
      93        5.3051         0.000       
      92        5.2872         0.000       
      91        4.9147         0.000       
      90        4.7546         0.000       
      89        4.5677         0.000       
      88        4.4534         0.000       
      87        4.4297         0.000       
      86        4.0969         0.000       
      85        3.9689         0.000       
      84        3.7777         0.000       
      83        3.6631         0.000       
      82        3.5203         0.000       
      81        3.3169         0.000       
      80        3.1188         0.000       
      79        2.6253         0.000       
      78        2.5111         0.000       
      77        2.3918         0.000       
      76        2.2461         0.000       
      75        2.0807         0.000       
      74        1.7710         0.000       
      73        1.6514         0.000       
      72        1.4695         0.000       
      71        1.3629         0.000       
      70        1.2313         0.000       
      69        0.9896         0.000       
      68        0.6123         0.000       
      67        0.4515         0.000       
      66        0.3724         0.000       
      65       -0.0508         0.000       
      64       -0.1201         0.000       
      63       -0.4182         0.000       
      62       -0.8940         0.000       
      61       -1.3577         0.000       
      60       -1.4194         0.000       
      59       -1.6439         0.000 < LUMO
      58       -6.2673         2.000 < HOMO
      57       -6.4444         2.000       
      56       -6.7080         2.000       
      55       -6.9803         2.000       
      54       -7.9893         2.000       
      53       -8.2109         2.000       
      52       -8.3005         2.000       
      51       -8.4574         2.000       
      50       -8.5670         2.000       
      49       -8.7741         2.000       
      48       -9.0343         2.000       
      47       -9.1323         2.000       
      46       -9.4797         2.000       
      45       -9.6452         2.000       
      44       -9.8185         2.000       
      43      -10.0292         2.000       
      42      -10.1480         2.000       
      41      -10.4110         2.000       
      40      -10.6072         2.000       
      39      -10.7781         2.000       
      38      -10.9994         2.000       
      37      -11.2627         2.000       
      36      -11.5848         2.000       
      35      -12.2526         2.000       
      34      -12.4100         2.000       
      33      -12.9601         2.000       
      32      -13.1553         2.000       
      31      -13.5681         2.000       
      30      -14.4282         2.000       
      29      -14.6724         2.000       
      28      -15.1236         2.000       
      27      -15.5908         2.000       
      26      -17.0356         2.000       
      25      -17.2665         2.000       
      24      -18.5080         2.000       
      23      -18.5792         2.000       
      22      -19.3203         2.000       
      21      -20.0045         2.000       
      20      -20.8616         2.000       
      19      -21.6236         2.000       
      18      -29.3889         2.000       
      17      -30.7890         2.000       
      16     -270.0948         2.000       
      15     -270.2659         2.000       
      14     -270.2706         2.000       
      13     -270.2993         2.000       
      12     -270.3235         2.000       
      11     -270.3437         2.000       
      10     -270.3553         2.000       
       9     -270.3985         2.000       
       8     -270.4931         2.000       
       7     -270.5628         2.000       
       6     -270.5736         2.000       
       5     -270.6705         2.000       
       4     -271.3814         2.000       
       3     -274.9043         2.000       
       2     -661.4781         2.000       
       1     -661.5202         2.000       

AMS application finished. Exiting.
NORMAL TERMINATION
     Total cpu time:    5476.95
  Total system time:      31.04
 Total elapsed time:    5540.72
NORMAL TERMINATION
