
 *******************************************************************************
 *                                                                             *
 *  --------------------------------                                           *
 *   Amsterdam Modeling Suite (AMS)              2026.103                      *
 *  --------------------------------                                           *
 *                                               r260501 2026-05-01 873454b5   *
 *                                                                             *
 *                                                                             *
 *                              =================                              *
 *                              |               |                              *
 *                              |     A M S     |                              *
 *                              |               |                              *
 *                              =================                              *
 *                                                                             *
 *                                                                             *
 *   Online information and documentation:  https://www.scm.com/support/       *
 *   E-mail:  support@scm.com   info@scm.com                                   *
 *                                                                             *
 *   Scientific publications using AMS results must be properly referenced     *
 *   See the User Manuals (or the web site) for recommended citations          *
 *   The terms and conditions of the End User License Agreement apply to       *
 *   the use of AMS, https://www.scm.com/license-terms/                        *
 *                                                                             *
 **********************  x86_64_linux_intel / intelmpi  ************************
 
 Licensed to: Jong-June Jeon / University of Seoul 2026-06-02 13:44:15
 SCM User ID: u30731
  
 AMS 2026.103  RunTime: Jun03-2026 20:48:02  ShM Nodes: 1  Procs: 1

 AMS jobname: c2_fragB_ts
 AMS jobid  : 309819333

 Start   directory: /gpfs/home1/yeseo1ee/projects/eda-asm-prediction/ADF_800/adf_outputs/batch_004/qmrxn20_e2_C_D_E_A_C_A/
 Results directory: /gpfs/home1/yeseo1ee/projects/eda-asm-prediction/ADF_800/adf_outputs/batch_004/qmrxn20_e2_C_D_E_A_C_A/c2_fragB_ts.results/
 Scratch directory: /tmp/amstmp_c2_fragB_ts_kid0.309819333/

 RNG seed: 314067507 1996073444 -52348618 1487287049 -1079322085 -533816247 1143716752 -1935541584



                      ************************************************************************
                      *  ADF 2026.103  RunTime: Jun03-2026 20:48:02  ShM Nodes: 1  Procs: 1  *
                      ************************************************************************
  

       ****************************
       * SINGLE POINT CALCULATION *
       ****************************

--------
Geometry
--------
Formula: C4H7BrN2
Atoms
  Index Symbol   x (angstrom)   y (angstrom)   z (angstrom)
      1      C    -0.26350039     0.01189653    -0.29821644
      2      C    -0.21979372    -0.14353930     1.17374416
      3     Br     1.71852461     0.17580328    -1.14794668
      4      H    -1.37043263    -0.06347624     1.46808745
      5      H     0.19730857    -1.11032425     1.46943948
      6      C    -1.00899081     1.24548594    -0.73092330
      7      H    -1.18561132     1.26720411    -1.80695871
      8      H    -1.95478749     1.23344494    -0.15383357
      9      H    -0.46231715     2.14063756    -0.43566656
     10      N     0.33889058     0.96037158     1.92239556
     11      H    -0.42846115     1.60681494     2.10473658
     12      H     1.06893700     1.42599149     1.39535371
     13      C    -0.76293699    -1.19215083    -0.94334933
     14      N    -1.20193907    -2.16405414    -1.44141568

Total System Charge              0.00000


----------------
ADF Engine Input
----------------
 
   Basis
     Type TZ2P
     Core None
   End
   XC
     GGA BLYP
     Dispersion GRIMME3 BJDAMP
   End
   Symmetry NOSYM
   NumericalQuality Normal
   Unrestricted No
   SCF
     Iterations 200
     Converge 1.0e-6
   End
   Save TAPE21
 

 Title: *** (NO TITLE) ***

 *** adf ***



 ===========================
 A T T A C H E D   F I L E S
 ===========================
  



 ===============================
 M O D E L   P A R A M E T E R S
 ===============================
  
 DENSITY FUNCTIONAL POTENTIAL (scf)
    LDA:                               Exchange only                           == Not Default ==
    Gradient Corrections:              Becke88 LYP                             == Not Default ==

 SPIN  (restricted / unrestr.)
    Molecule:                          Restricted                               
    Fragments:                         Restricted                               

 OTHER ASPECTS
    Relativistic Corrections:          scalar (ZORA,MAPA)                       

    Nuclear Charge Density Model:      Point Charge Nuclei                      
    Core Treatment:                    Frozen Orbital(s)                        

    Hyperfine or Zeeman Interaction:   ---                                      

 Settings for Grimme D3 dispersion correction

      damping                        BJ
      s6                          1.000
      s8                          2.700
      a1                          0.430
      a2                          4.236

 Other (technical) parameters

      alpha                      14.000
      version                         4
 


 Fragment File(s)
 ----------------
 C:
         file : /gpfs/home1/yeseo1ee/projects/eda-asm-prediction/ADF_800/adf_outputs/batch_004/qmrxn20_e2_C_D_E_A_C_A/c2_fragB_ts.results/t21.50BA88D5.C
         jobid: 0
         title: Carbon (TZ2P)
 Br:
         file : /gpfs/home1/yeseo1ee/projects/eda-asm-prediction/ADF_800/adf_outputs/batch_004/qmrxn20_e2_C_D_E_A_C_A/c2_fragB_ts.results/t21.42F58B50.Br
         jobid: 0
         title: Bromine (TZ2P)
 H:
         file : /gpfs/home1/yeseo1ee/projects/eda-asm-prediction/ADF_800/adf_outputs/batch_004/qmrxn20_e2_C_D_E_A_C_A/c2_fragB_ts.results/t21.6F35CCAB.H
         jobid: 0
         title: Hydrogen (TZ2P)
 N:
         file : /gpfs/home1/yeseo1ee/projects/eda-asm-prediction/ADF_800/adf_outputs/batch_004/qmrxn20_e2_C_D_E_A_C_A/c2_fragB_ts.results/t21.44EAA48D.N
         jobid: 0
         title: Nitrogen (TZ2P)



 ===============
 G E O M E T R Y  ***  3D  Molecule  ***
 ===============
  

 ATOMS
 =====                            X Y Z                    CHARGE
                                (Angstrom)             Nucl     +Core       At.Mass
                       --------------------------    ----------------       -------
    1  C              -0.2635    0.0119   -0.2982      6.00      6.00       12.0000
    2  C              -0.2198   -0.1435    1.1737      6.00      6.00       12.0000
    3  Br              1.7185    0.1758   -1.1479     35.00     35.00       78.9183
    4  H              -1.3704   -0.0635    1.4681      1.00      1.00        1.0078
    5  H               0.1973   -1.1103    1.4694      1.00      1.00        1.0078
    6  C              -1.0090    1.2455   -0.7309      6.00      6.00       12.0000
    7  H              -1.1856    1.2672   -1.8070      1.00      1.00        1.0078
    8  H              -1.9548    1.2334   -0.1538      1.00      1.00        1.0078
    9  H              -0.4623    2.1406   -0.4357      1.00      1.00        1.0078
   10  N               0.3389    0.9604    1.9224      7.00      7.00       14.0031
   11  H              -0.4285    1.6068    2.1047      1.00      1.00        1.0078
   12  H               1.0689    1.4260    1.3954      1.00      1.00        1.0078
   13  C              -0.7629   -1.1922   -0.9433      6.00      6.00       12.0000
   14  N              -1.2019   -2.1641   -1.4414      7.00      7.00       14.0031


 FRAGMENTS
 =========                                     Atoms in this Fragment     Cart. coord.s (Angstrom)
                                               -------------------------------------------------------
    1  C                                                 1  C           -0.2635    0.0119   -0.2982
    2  C                                                 2  C           -0.2198   -0.1435    1.1737
    3  C                                                 6  C           -1.0090    1.2455   -0.7309
    4  C                                                13  C           -0.7629   -1.1922   -0.9433
    5  Br                                                3  Br           1.7185    0.1758   -1.1479
    6  H                                                 4  H           -1.3704   -0.0635    1.4681
    7  H                                                 5  H            0.1973   -1.1103    1.4694
    8  H                                                 7  H           -1.1856    1.2672   -1.8070
    9  H                                                 8  H           -1.9548    1.2334   -0.1538
   10  H                                                 9  H           -0.4623    2.1406   -0.4357
   11  H                                                11  H           -0.4285    1.6068    2.1047
   12  H                                                12  H            1.0689    1.4260    1.3954
   13  N                                                10  N            0.3389    0.9604    1.9224
   14  N                                                14  N           -1.2019   -2.1641   -1.4414


 Interatomic Distance Matrix (Angstrom)
 --------------------------------------

   1)     0.000
   2)     1.481   0.000
   3)     2.163   3.041   0.000
   4)     2.086   1.190   4.055   0.000
   5)     2.144   1.094   3.289   1.885   0.000
   6)     1.505   2.486   2.959   2.585   3.442   0.000
   7)     2.168   3.436   3.172   3.540   4.278   1.091   0.000
   8)     2.091   2.582   3.950   2.157   3.572   1.108   1.824   0.000
   9)     2.142   2.805   3.021   3.051   3.825   1.090   1.779   1.769   0.000
  10)     2.489   1.446   3.456   2.044   2.124   2.990   4.041   3.106   2.756   0.000
  11)     2.889   1.993   4.152   2.021   2.860   2.917   3.999   2.751   2.596   1.020
          0.000
  12)     2.577   2.043   2.907   2.859   2.683   2.978   3.920   3.403   2.492   1.014
          1.667   0.000
  13)     1.454   2.424   2.841   2.731   2.598   2.459   2.641   2.816   3.385   3.750
          4.152   3.960   0.000
  14)     2.631   3.448   3.754   3.592   3.397   3.488   3.451   3.710   4.482   4.843
          5.234   5.108   1.177   0.000

 Min. Distance =    1.0137
 Max. Distance =    5.2338



 =====================================
 S Y M M E T R Y ,   E L E C T R O N S
 =====================================
  
 Symmetry: NOSYM

 Irreducible Representations, including subspecies
 -------------------------------------------------
 A


 Configuration of Valence Electrons
 ==================================
 ( determined in the SCF procedure )

 Total:   80

 Net Charge: 0 (Nuclei minus Electrons)

 Aufbau principle for MO occupations will be applied through SCF cycle no.     100
 Thereafter, the program will assign electrons to MOs that are spatially
 similar to the occupied MOs in a "reference" cycle ("KeepOrbitals").
 The reference cycle is always the PREVIOUS cycle: it will evolve with
 the SCF procedure.
 ***************************************************************************************************



                                      ****************************************
                                      *  B U I L D : (Fragments, Functions)  *
                                      ****************************************
  



 =======
 S F O s  ***  (Symmetrized Fragment Orbitals)  ***
 =======
  
 SFOs are linear combinations of (valence) Fragment Orbitals (FOs), such that the SFOs transform as the
 irreducible representations of the (molecular) symmetry group. Each SFO is therefore characterized by
 an irrep of the molecule and by a few (or only one) generating FOs.
 The SFOs constitute a symmetry-adapted basis for the Fock matrix. The MO eigenvector coefficients in
 this basis provide a direct interpretation of the MOs in terms of Frontier Orbital Theory.

 The SFOs are combined with auxiliary Core Functions (CFs) to ensure orthogonalization on the (frozen)
 Core Orbitals (COs). The Core-orthogonalized SFOs (CSFOs) constitute the true Fock basis.

 The FOs, and hence also the (C)SFOs are combinations of the elementary basis functions (BAS). The basis
 functions that participate in the description of the SFOs depend on the irrep. The indices of the
 involved functions are printed below for each irrep.
 (The complete list of primitive basis functions is printed in another section)

 Total nr. of (C)SFOs (summation over all irreps) :   289

 NOTE: a (C)SFO that is defined as a combination of more than one FO is usually NOT normalized.



                                       === A ===
 Nr. of SFOs :  289
 Cartesian basis functions that participate in this irrep (total number =   327) :
      1     2     3     4     5     6     9    12     7    10
     13     8    11    14    15    16    17    18    19    20
     21    22    23    24    25    26    27    28    29    30
     31    32    33    34    35    36    39    42    37    40
     43    38    41    44    45    46    47    48    49    50
     51    52    53    54    55    56    57    58    59    60
     61    62    63    64    65    66    69    72    67    70
     73    68    71    74    75    76    77    78    79    80
     81    82    83    84    85    86    87    88    89    90
     91    92    93    94    95    96    99   102    97   100
    103    98   101   104   105   106   107   108   109   110
    111   112   113   114   115   116   117   118   119   120
    121   122   123   130   131   156   157   158   124   127
    132   135   159   162   165   125   128   133   136   160
    163   166   126   129   134   137   161   164   167   138
    144   150   168   139   145   151   169   140   146   152
    170   141   147   153   171   142   148   154   172   143
    149   155   173   174   175   176   177   178   179   180
    181   182   183   184   185   186   187   188   189   190
    191   192   193   194   195   196   197   198   199   200
    201   202   203   204   205   206   207   208   209   210
    211   212   213   214   215   216   217   218   219   220
    221   222   223   224   225   226   227   228   229   230
    231   232   233   234   235   236   237   238   239   240
    241   242   243   244   245   246   247   248   249   250
    251   252   253   254   255   256   257   258   259   260
    261   262   263   264   265   266   267   268   269   270
    271   272   273   276   279   274   277   280   275   278
    281   282   283   284   285   286   287   288   289   290
    291   292   293   294   295   296   297   298   299   300
    301   302   303   306   309   304   307   310   305   308
    311   312   313   314   315   316   317   318   319   320
    321   322   323   324   325   326   327

    SFO  (index         Fragment          Generating    Expansion in Fragment Orbitals
  indx  incl.CFs)   Occup   Orb.Energy   FragmentType  Coeff.   Orbital     on Fragment
 --------------------------------------------------------------------------------------
     1       1      2.000     -10.066 au  C             1.00      1 S               1
                        (    -273.921 eV)
     2       2      2.000      -0.501 au  C             1.00      2 S               1
                        (     -13.620 eV)
     3       3       --         0.373 au  C             1.00      3 S               1
                        (      10.158 eV)
     4       4       --         5.405 au  C             1.00      4 S               1
                        (     147.073 eV)
     5       5       --        49.848 au  C             1.00      5 S               1
                        (    1356.422 eV)
     6       6      0.667      -0.193 au  C             1.00      1 P:x             1
                        (      -5.239 eV)
     7       7       --         0.169 au  C             1.00      2 P:x             1
                        (       4.589 eV)
     8       8       --         2.013 au  C             1.00      3 P:x             1
                        (      54.789 eV)
     9       9      0.667      -0.193 au  C             1.00      1 P:y             1
                        (      -5.239 eV)
    10      10       --         0.169 au  C             1.00      2 P:y             1
                        (       4.589 eV)
    11      11       --         2.013 au  C             1.00      3 P:y             1
                        (      54.789 eV)
    12      12      0.667      -0.193 au  C             1.00      1 P:z             1
                        (      -5.239 eV)
    13      13       --         0.169 au  C             1.00      2 P:z             1
                        (       4.589 eV)
    14      14       --         2.013 au  C             1.00      3 P:z             1
                        (      54.789 eV)
    15      15       --         1.243 au  C             1.00      1 D:z2            1
                        (      33.824 eV)
    16      16       --         1.243 au  C             1.00      1 D:x2-y2         1
                        (      33.824 eV)
    17      17       --         1.243 au  C             1.00      1 D:xy            1
                        (      33.824 eV)
    18      18       --         1.243 au  C             1.00      1 D:xz            1
                        (      33.824 eV)
    19      19       --         1.243 au  C             1.00      1 D:yz            1
                        (      33.824 eV)
    20      20       --         4.016 au  C             1.00      1 F:z3            1
                        (     109.271 eV)
    21      21       --         4.016 au  C             1.00      1 F:z             1
                        (     109.271 eV)
    22      22       --         4.016 au  C             1.00      1 F:xyz           1
                        (     109.271 eV)
    23      23       --         4.016 au  C             1.00      1 F:z2x           1
                        (     109.271 eV)
    24      24       --         4.016 au  C             1.00      1 F:z2y           1
                        (     109.271 eV)
    25      25       --         4.016 au  C             1.00      1 F:x             1
                        (     109.271 eV)
    26      26       --         4.016 au  C             1.00      1 F:y             1
                        (     109.271 eV)
    27      27      2.000     -10.066 au  C             1.00      1 S               2
                        (    -273.921 eV)
    28      28      2.000      -0.501 au  C             1.00      2 S               2
                        (     -13.620 eV)
    29      29       --         0.373 au  C             1.00      3 S               2
                        (      10.158 eV)
    30      30       --         5.405 au  C             1.00      4 S               2
                        (     147.073 eV)
    31      31       --        49.848 au  C             1.00      5 S               2
                        (    1356.422 eV)
    32      32      0.667      -0.193 au  C             1.00      1 P:x             2
                        (      -5.239 eV)
    33      33       --         0.169 au  C             1.00      2 P:x             2
                        (       4.589 eV)
    34      34       --         2.013 au  C             1.00      3 P:x             2
                        (      54.789 eV)
    35      35      0.667      -0.193 au  C             1.00      1 P:y             2
                        (      -5.239 eV)
    36      36       --         0.169 au  C             1.00      2 P:y             2
                        (       4.589 eV)
    37      37       --         2.013 au  C             1.00      3 P:y             2
                        (      54.789 eV)
    38      38      0.667      -0.193 au  C             1.00      1 P:z             2
                        (      -5.239 eV)
    39      39       --         0.169 au  C             1.00      2 P:z             2
                        (       4.589 eV)
    40      40       --         2.013 au  C             1.00      3 P:z             2
                        (      54.789 eV)
    41      41       --         1.243 au  C             1.00      1 D:z2            2
                        (      33.824 eV)
    42      42       --         1.243 au  C             1.00      1 D:x2-y2         2
                        (      33.824 eV)
    43      43       --         1.243 au  C             1.00      1 D:xy            2
                        (      33.824 eV)
    44      44       --         1.243 au  C             1.00      1 D:xz            2
                        (      33.824 eV)
    45      45       --         1.243 au  C             1.00      1 D:yz            2
                        (      33.824 eV)
    46      46       --         4.016 au  C             1.00      1 F:z3            2
                        (     109.271 eV)
    47      47       --         4.016 au  C             1.00      1 F:z             2
                        (     109.271 eV)
    48      48       --         4.016 au  C             1.00      1 F:xyz           2
                        (     109.271 eV)
    49      49       --         4.016 au  C             1.00      1 F:z2x           2
                        (     109.271 eV)
    50      50       --         4.016 au  C             1.00      1 F:z2y           2
                        (     109.271 eV)
    51      51       --         4.016 au  C             1.00      1 F:x             2
                        (     109.271 eV)
    52      52       --         4.016 au  C             1.00      1 F:y             2
                        (     109.271 eV)
    53      53      2.000     -10.066 au  C             1.00      1 S               3
                        (    -273.921 eV)
    54      54      2.000      -0.501 au  C             1.00      2 S               3
                        (     -13.620 eV)
    55      55       --         0.373 au  C             1.00      3 S               3
                        (      10.158 eV)
    56      56       --         5.405 au  C             1.00      4 S               3
                        (     147.073 eV)
    57      57       --        49.848 au  C             1.00      5 S               3
                        (    1356.422 eV)
    58      58      0.667      -0.193 au  C             1.00      1 P:x             3
                        (      -5.239 eV)
    59      59       --         0.169 au  C             1.00      2 P:x             3
                        (       4.589 eV)
    60      60       --         2.013 au  C             1.00      3 P:x             3
                        (      54.789 eV)
    61      61      0.667      -0.193 au  C             1.00      1 P:y             3
                        (      -5.239 eV)
    62      62       --         0.169 au  C             1.00      2 P:y             3
                        (       4.589 eV)
    63      63       --         2.013 au  C             1.00      3 P:y             3
                        (      54.789 eV)
    64      64      0.667      -0.193 au  C             1.00      1 P:z             3
                        (      -5.239 eV)
    65      65       --         0.169 au  C             1.00      2 P:z             3
                        (       4.589 eV)
    66      66       --         2.013 au  C             1.00      3 P:z             3
                        (      54.789 eV)
    67      67       --         1.243 au  C             1.00      1 D:z2            3
                        (      33.824 eV)
    68      68       --         1.243 au  C             1.00      1 D:x2-y2         3
                        (      33.824 eV)
    69      69       --         1.243 au  C             1.00      1 D:xy            3
                        (      33.824 eV)
    70      70       --         1.243 au  C             1.00      1 D:xz            3
                        (      33.824 eV)
    71      71       --         1.243 au  C             1.00      1 D:yz            3
                        (      33.824 eV)
    72      72       --         4.016 au  C             1.00      1 F:z3            3
                        (     109.271 eV)
    73      73       --         4.016 au  C             1.00      1 F:z             3
                        (     109.271 eV)
    74      74       --         4.016 au  C             1.00      1 F:xyz           3
                        (     109.271 eV)
    75      75       --         4.016 au  C             1.00      1 F:z2x           3
                        (     109.271 eV)
    76      76       --         4.016 au  C             1.00      1 F:z2y           3
                        (     109.271 eV)
    77      77       --         4.016 au  C             1.00      1 F:x             3
                        (     109.271 eV)
    78      78       --         4.016 au  C             1.00      1 F:y             3
                        (     109.271 eV)
    79      79      2.000     -10.066 au  C             1.00      1 S               4
                        (    -273.921 eV)
    80      80      2.000      -0.501 au  C             1.00      2 S               4
                        (     -13.620 eV)
    81      81       --         0.373 au  C             1.00      3 S               4
                        (      10.158 eV)
    82      82       --         5.405 au  C             1.00      4 S               4
                        (     147.073 eV)
    83      83       --        49.848 au  C             1.00      5 S               4
                        (    1356.422 eV)
    84      84      0.667      -0.193 au  C             1.00      1 P:x             4
                        (      -5.239 eV)
    85      85       --         0.169 au  C             1.00      2 P:x             4
                        (       4.589 eV)
    86      86       --         2.013 au  C             1.00      3 P:x             4
                        (      54.789 eV)
    87      87      0.667      -0.193 au  C             1.00      1 P:y             4
                        (      -5.239 eV)
    88      88       --         0.169 au  C             1.00      2 P:y             4
                        (       4.589 eV)
    89      89       --         2.013 au  C             1.00      3 P:y             4
                        (      54.789 eV)
    90      90      0.667      -0.193 au  C             1.00      1 P:z             4
                        (      -5.239 eV)
    91      91       --         0.169 au  C             1.00      2 P:z             4
                        (       4.589 eV)
    92      92       --         2.013 au  C             1.00      3 P:z             4
                        (      54.789 eV)
    93      93       --         1.243 au  C             1.00      1 D:z2            4
                        (      33.824 eV)
    94      94       --         1.243 au  C             1.00      1 D:x2-y2         4
                        (      33.824 eV)
    95      95       --         1.243 au  C             1.00      1 D:xy            4
                        (      33.824 eV)
    96      96       --         1.243 au  C             1.00      1 D:xz            4
                        (      33.824 eV)
    97      97       --         1.243 au  C             1.00      1 D:yz            4
                        (      33.824 eV)
    98      98       --         4.016 au  C             1.00      1 F:z3            4
                        (     109.271 eV)
    99      99       --         4.016 au  C             1.00      1 F:z             4
                        (     109.271 eV)
   100     100       --         4.016 au  C             1.00      1 F:xyz           4
                        (     109.271 eV)
   101     101       --         4.016 au  C             1.00      1 F:z2x           4
                        (     109.271 eV)
   102     102       --         4.016 au  C             1.00      1 F:z2y           4
                        (     109.271 eV)
   103     103       --         4.016 au  C             1.00      1 F:x             4
                        (     109.271 eV)
   104     104       --         4.016 au  C             1.00      1 F:y             4
                        (     109.271 eV)
   105     105      2.000    -488.642 au  Br            1.00      1 S               5
                        (  -13296.634 eV)
   106     106      2.000     -63.585 au  Br            1.00      2 S               5
                        (   -1730.246 eV)
   107     107      2.000      -8.709 au  Br            1.00      3 S               5
                        (    -236.987 eV)
   108     108      2.000      -0.733 au  Br            1.00      4 S               5
                        (     -19.946 eV)
   109     109       --         0.224 au  Br            1.00      5 S               5
                        (       6.099 eV)
   110     110       --         2.414 au  Br            1.00      6 S               5
                        (      65.683 eV)
   111     111       --        13.546 au  Br            1.00      7 S               5
                        (     368.609 eV)
   112     112       --       615.209 au  Br            1.00      8 S               5
                        (   16740.684 eV)
   113     113      2.000     -56.116 au  Br            1.00      1 P:x             5
                        (   -1526.987 eV)
   114     114      2.000      -6.365 au  Br            1.00      2 P:x             5
                        (    -173.205 eV)
   115     115      1.667      -0.284 au  Br            1.00      3 P:x             5
                        (      -7.716 eV)
   116     116       --         0.137 au  Br            1.00      4 P:x             5
                        (       3.720 eV)
   117     117       --         1.208 au  Br            1.00      5 P:x             5
                        (      32.874 eV)
   118     118       --         8.734 au  Br            1.00      6 P:x             5
                        (     237.661 eV)
   119     119       --        95.627 au  Br            1.00      7 P:x             5
                        (    2602.141 eV)
   120     120      2.000     -56.116 au  Br            1.00      1 P:y             5
                        (   -1526.987 eV)
   121     121      2.000      -6.365 au  Br            1.00      2 P:y             5
                        (    -173.205 eV)
   122     122      1.667      -0.284 au  Br            1.00      3 P:y             5
                        (      -7.716 eV)
   123     123       --         0.137 au  Br            1.00      4 P:y             5
                        (       3.720 eV)
   124     124       --         1.208 au  Br            1.00      5 P:y             5
                        (      32.874 eV)
   125     125       --         8.734 au  Br            1.00      6 P:y             5
                        (     237.661 eV)
   126     126       --        95.627 au  Br            1.00      7 P:y             5
                        (    2602.141 eV)
   127     127      2.000     -56.116 au  Br            1.00      1 P:z             5
                        (   -1526.987 eV)
   128     128      2.000      -6.365 au  Br            1.00      2 P:z             5
                        (    -173.205 eV)
   129     129      1.667      -0.284 au  Br            1.00      3 P:z             5
                        (      -7.716 eV)
   130     130       --         0.137 au  Br            1.00      4 P:z             5
                        (       3.720 eV)
   131     131       --         1.208 au  Br            1.00      5 P:z             5
                        (      32.874 eV)
   132     132       --         8.734 au  Br            1.00      6 P:z             5
                        (     237.661 eV)
   133     133       --        95.627 au  Br            1.00      7 P:z             5
                        (    2602.141 eV)
   134     134      2.000      -2.452 au  Br            1.00      1 D:z2            5
                        (     -66.719 eV)
   135     135       --         0.270 au  Br            1.00      2 D:z2            5
                        (       7.341 eV)
   136     136       --         2.706 au  Br            1.00      3 D:z2            5
                        (      73.633 eV)
   137     137       --        20.525 au  Br            1.00      4 D:z2            5
                        (     558.519 eV)
   138     138      2.000      -2.452 au  Br            1.00      1 D:x2-y2         5
                        (     -66.719 eV)
   139     139       --         0.270 au  Br            1.00      2 D:x2-y2         5
                        (       7.341 eV)
   140     140       --         2.706 au  Br            1.00      3 D:x2-y2         5
                        (      73.633 eV)
   141     141       --        20.525 au  Br            1.00      4 D:x2-y2         5
                        (     558.519 eV)
   142     142      2.000      -2.452 au  Br            1.00      1 D:xy            5
                        (     -66.719 eV)
   143     143       --         0.270 au  Br            1.00      2 D:xy            5
                        (       7.341 eV)
   144     144       --         2.706 au  Br            1.00      3 D:xy            5
                        (      73.633 eV)
   145     145       --        20.525 au  Br            1.00      4 D:xy            5
                        (     558.519 eV)
   146     146      2.000      -2.452 au  Br            1.00      1 D:xz            5
                        (     -66.719 eV)
   147     147       --         0.270 au  Br            1.00      2 D:xz            5
                        (       7.341 eV)
   148     148       --         2.706 au  Br            1.00      3 D:xz            5
                        (      73.633 eV)
   149     149       --        20.525 au  Br            1.00      4 D:xz            5
                        (     558.519 eV)
   150     150      2.000      -2.452 au  Br            1.00      1 D:yz            5
                        (     -66.719 eV)
   151     151       --         0.270 au  Br            1.00      2 D:yz            5
                        (       7.341 eV)
   152     152       --         2.706 au  Br            1.00      3 D:yz            5
                        (      73.633 eV)
   153     153       --        20.525 au  Br            1.00      4 D:yz            5
                        (     558.519 eV)
   154     154       --         0.857 au  Br            1.00      1 F:z3            5
                        (      23.313 eV)
   155     155       --         0.857 au  Br            1.00      1 F:z             5
                        (      23.313 eV)
   156     156       --         0.857 au  Br            1.00      1 F:xyz           5
                        (      23.313 eV)
   157     157       --         0.857 au  Br            1.00      1 F:z2x           5
                        (      23.313 eV)
   158     158       --         0.857 au  Br            1.00      1 F:z2y           5
                        (      23.313 eV)
   159     159       --         0.857 au  Br            1.00      1 F:x             5
                        (      23.313 eV)
   160     160       --         0.857 au  Br            1.00      1 F:y             5
                        (      23.313 eV)
   161     161      1.000      -0.240 au  H             1.00      1 S               6
                        (      -6.532 eV)
   162     162       --         0.088 au  H             1.00      2 S               6
                        (       2.394 eV)
   163     163       --         1.502 au  H             1.00      3 S               6
                        (      40.869 eV)
   164     164       --         0.406 au  H             1.00      1 P:x             6
                        (      11.051 eV)
   165     165       --         0.406 au  H             1.00      1 P:y             6
                        (      11.051 eV)
   166     166       --         0.406 au  H             1.00      1 P:z             6
                        (      11.051 eV)
   167     167       --         2.569 au  H             1.00      1 D:z2            6
                        (      69.917 eV)
   168     168       --         2.569 au  H             1.00      1 D:x2-y2         6
                        (      69.917 eV)
   169     169       --         2.569 au  H             1.00      1 D:xy            6
                        (      69.917 eV)
   170     170       --         2.569 au  H             1.00      1 D:xz            6
                        (      69.917 eV)
   171     171       --         2.569 au  H             1.00      1 D:yz            6
                        (      69.917 eV)
   172     172      1.000      -0.240 au  H             1.00      1 S               7
                        (      -6.532 eV)
   173     173       --         0.088 au  H             1.00      2 S               7
                        (       2.394 eV)
   174     174       --         1.502 au  H             1.00      3 S               7
                        (      40.869 eV)
   175     175       --         0.406 au  H             1.00      1 P:x             7
                        (      11.051 eV)
   176     176       --         0.406 au  H             1.00      1 P:y             7
                        (      11.051 eV)
   177     177       --         0.406 au  H             1.00      1 P:z             7
                        (      11.051 eV)
   178     178       --         2.569 au  H             1.00      1 D:z2            7
                        (      69.917 eV)
   179     179       --         2.569 au  H             1.00      1 D:x2-y2         7
                        (      69.917 eV)
   180     180       --         2.569 au  H             1.00      1 D:xy            7
                        (      69.917 eV)
   181     181       --         2.569 au  H             1.00      1 D:xz            7
                        (      69.917 eV)
   182     182       --         2.569 au  H             1.00      1 D:yz            7
                        (      69.917 eV)
   183     183      1.000      -0.240 au  H             1.00      1 S               8
                        (      -6.532 eV)
   184     184       --         0.088 au  H             1.00      2 S               8
                        (       2.394 eV)
   185     185       --         1.502 au  H             1.00      3 S               8
                        (      40.869 eV)
   186     186       --         0.406 au  H             1.00      1 P:x             8
                        (      11.051 eV)
   187     187       --         0.406 au  H             1.00      1 P:y             8
                        (      11.051 eV)
   188     188       --         0.406 au  H             1.00      1 P:z             8
                        (      11.051 eV)
   189     189       --         2.569 au  H             1.00      1 D:z2            8
                        (      69.917 eV)
   190     190       --         2.569 au  H             1.00      1 D:x2-y2         8
                        (      69.917 eV)
   191     191       --         2.569 au  H             1.00      1 D:xy            8
                        (      69.917 eV)
   192     192       --         2.569 au  H             1.00      1 D:xz            8
                        (      69.917 eV)
   193     193       --         2.569 au  H             1.00      1 D:yz            8
                        (      69.917 eV)
   194     194      1.000      -0.240 au  H             1.00      1 S               9
                        (      -6.532 eV)
   195     195       --         0.088 au  H             1.00      2 S               9
                        (       2.394 eV)
   196     196       --         1.502 au  H             1.00      3 S               9
                        (      40.869 eV)
   197     197       --         0.406 au  H             1.00      1 P:x             9
                        (      11.051 eV)
   198     198       --         0.406 au  H             1.00      1 P:y             9
                        (      11.051 eV)
   199     199       --         0.406 au  H             1.00      1 P:z             9
                        (      11.051 eV)
   200     200       --         2.569 au  H             1.00      1 D:z2            9
                        (      69.917 eV)
   201     201       --         2.569 au  H             1.00      1 D:x2-y2         9
                        (      69.917 eV)
   202     202       --         2.569 au  H             1.00      1 D:xy            9
                        (      69.917 eV)
   203     203       --         2.569 au  H             1.00      1 D:xz            9
                        (      69.917 eV)
   204     204       --         2.569 au  H             1.00      1 D:yz            9
                        (      69.917 eV)
   205     205      1.000      -0.240 au  H             1.00      1 S              10
                        (      -6.532 eV)
   206     206       --         0.088 au  H             1.00      2 S              10
                        (       2.394 eV)
   207     207       --         1.502 au  H             1.00      3 S              10
                        (      40.869 eV)
   208     208       --         0.406 au  H             1.00      1 P:x            10
                        (      11.051 eV)
   209     209       --         0.406 au  H             1.00      1 P:y            10
                        (      11.051 eV)
   210     210       --         0.406 au  H             1.00      1 P:z            10
                        (      11.051 eV)
   211     211       --         2.569 au  H             1.00      1 D:z2           10
                        (      69.917 eV)
   212     212       --         2.569 au  H             1.00      1 D:x2-y2        10
                        (      69.917 eV)
   213     213       --         2.569 au  H             1.00      1 D:xy           10
                        (      69.917 eV)
   214     214       --         2.569 au  H             1.00      1 D:xz           10
                        (      69.917 eV)
   215     215       --         2.569 au  H             1.00      1 D:yz           10
                        (      69.917 eV)
   216     216      1.000      -0.240 au  H             1.00      1 S              11
                        (      -6.532 eV)
   217     217       --         0.088 au  H             1.00      2 S              11
                        (       2.394 eV)
   218     218       --         1.502 au  H             1.00      3 S              11
                        (      40.869 eV)
   219     219       --         0.406 au  H             1.00      1 P:x            11
                        (      11.051 eV)
   220     220       --         0.406 au  H             1.00      1 P:y            11
                        (      11.051 eV)
   221     221       --         0.406 au  H             1.00      1 P:z            11
                        (      11.051 eV)
   222     222       --         2.569 au  H             1.00      1 D:z2           11
                        (      69.917 eV)
   223     223       --         2.569 au  H             1.00      1 D:x2-y2        11
                        (      69.917 eV)
   224     224       --         2.569 au  H             1.00      1 D:xy           11
                        (      69.917 eV)
   225     225       --         2.569 au  H             1.00      1 D:xz           11
                        (      69.917 eV)
   226     226       --         2.569 au  H             1.00      1 D:yz           11
                        (      69.917 eV)
   227     227      1.000      -0.240 au  H             1.00      1 S              12
                        (      -6.532 eV)
   228     228       --         0.088 au  H             1.00      2 S              12
                        (       2.394 eV)
   229     229       --         1.502 au  H             1.00      3 S              12
                        (      40.869 eV)
   230     230       --         0.406 au  H             1.00      1 P:x            12
                        (      11.051 eV)
   231     231       --         0.406 au  H             1.00      1 P:y            12
                        (      11.051 eV)
   232     232       --         0.406 au  H             1.00      1 P:z            12
                        (      11.051 eV)
   233     233       --         2.569 au  H             1.00      1 D:z2           12
                        (      69.917 eV)
   234     234       --         2.569 au  H             1.00      1 D:x2-y2        12
                        (      69.917 eV)
   235     235       --         2.569 au  H             1.00      1 D:xy           12
                        (      69.917 eV)
   236     236       --         2.569 au  H             1.00      1 D:xz           12
                        (      69.917 eV)
   237     237       --         2.569 au  H             1.00      1 D:yz           12
                        (      69.917 eV)
   238     238      2.000     -14.160 au  N             1.00      1 S              13
                        (    -385.319 eV)
   239     239      2.000      -0.678 au  N             1.00      2 S              13
                        (     -18.450 eV)
   240     240       --         0.517 au  N             1.00      3 S              13
                        (      14.073 eV)
   241     241       --         6.872 au  N             1.00      4 S              13
                        (     186.990 eV)
   242     242       --        63.432 au  N             1.00      5 S              13
                        (    1726.082 eV)
   243     243      1.000      -0.260 au  N             1.00      1 P:x            13
                        (      -7.062 eV)
   244     244       --         0.281 au  N             1.00      2 P:x            13
                        (       7.649 eV)
   245     245       --         3.275 au  N             1.00      3 P:x            13
                        (      89.105 eV)
   246     246      1.000      -0.260 au  N             1.00      1 P:y            13
                        (      -7.062 eV)
   247     247       --         0.281 au  N             1.00      2 P:y            13
                        (       7.649 eV)
   248     248       --         3.275 au  N             1.00      3 P:y            13
                        (      89.105 eV)
   249     249      1.000      -0.260 au  N             1.00      1 P:z            13
                        (      -7.062 eV)
   250     250       --         0.281 au  N             1.00      2 P:z            13
                        (       7.649 eV)
   251     251       --         3.275 au  N             1.00      3 P:z            13
                        (      89.105 eV)
   252     252       --         1.250 au  N             1.00      1 D:z2           13
                        (      34.005 eV)
   253     253       --         1.250 au  N             1.00      1 D:x2-y2        13
                        (      34.005 eV)
   254     254       --         1.250 au  N             1.00      1 D:xy           13
                        (      34.005 eV)
   255     255       --         1.250 au  N             1.00      1 D:xz           13
                        (      34.005 eV)
   256     256       --         1.250 au  N             1.00      1 D:yz           13
                        (      34.005 eV)
   257     257       --         4.013 au  N             1.00      1 F:z3           13
                        (     109.190 eV)
   258     258       --         4.013 au  N             1.00      1 F:z            13
                        (     109.190 eV)
   259     259       --         4.013 au  N             1.00      1 F:xyz          13
                        (     109.190 eV)
   260     260       --         4.013 au  N             1.00      1 F:z2x          13
                        (     109.190 eV)
   261     261       --         4.013 au  N             1.00      1 F:z2y          13
                        (     109.190 eV)
   262     262       --         4.013 au  N             1.00      1 F:x            13
                        (     109.190 eV)
   263     263       --         4.013 au  N             1.00      1 F:y            13
                        (     109.190 eV)
   264     264      2.000     -14.160 au  N             1.00      1 S              14
                        (    -385.319 eV)
   265     265      2.000      -0.678 au  N             1.00      2 S              14
                        (     -18.450 eV)
   266     266       --         0.517 au  N             1.00      3 S              14
                        (      14.073 eV)
   267     267       --         6.872 au  N             1.00      4 S              14
                        (     186.990 eV)
   268     268       --        63.432 au  N             1.00      5 S              14
                        (    1726.082 eV)
   269     269      1.000      -0.260 au  N             1.00      1 P:x            14
                        (      -7.062 eV)
   270     270       --         0.281 au  N             1.00      2 P:x            14
                        (       7.649 eV)
   271     271       --         3.275 au  N             1.00      3 P:x            14
                        (      89.105 eV)
   272     272      1.000      -0.260 au  N             1.00      1 P:y            14
                        (      -7.062 eV)
   273     273       --         0.281 au  N             1.00      2 P:y            14
                        (       7.649 eV)
   274     274       --         3.275 au  N             1.00      3 P:y            14
                        (      89.105 eV)
   275     275      1.000      -0.260 au  N             1.00      1 P:z            14
                        (      -7.062 eV)
   276     276       --         0.281 au  N             1.00      2 P:z            14
                        (       7.649 eV)
   277     277       --         3.275 au  N             1.00      3 P:z            14
                        (      89.105 eV)
   278     278       --         1.250 au  N             1.00      1 D:z2           14
                        (      34.005 eV)
   279     279       --         1.250 au  N             1.00      1 D:x2-y2        14
                        (      34.005 eV)
   280     280       --         1.250 au  N             1.00      1 D:xy           14
                        (      34.005 eV)
   281     281       --         1.250 au  N             1.00      1 D:xz           14
                        (      34.005 eV)
   282     282       --         1.250 au  N             1.00      1 D:yz           14
                        (      34.005 eV)
   283     283       --         4.013 au  N             1.00      1 F:z3           14
                        (     109.190 eV)
   284     284       --         4.013 au  N             1.00      1 F:z            14
                        (     109.190 eV)
   285     285       --         4.013 au  N             1.00      1 F:xyz          14
                        (     109.190 eV)
   286     286       --         4.013 au  N             1.00      1 F:z2x          14
                        (     109.190 eV)
   287     287       --         4.013 au  N             1.00      1 F:z2y          14
                        (     109.190 eV)
   288     288       --         4.013 au  N             1.00      1 F:x            14
                        (     109.190 eV)
   289     289       --         4.013 au  N             1.00      1 F:y            14
                        (     109.190 eV)



 ================================
 (Slater-type)  F U N C T I O N S  ***  (Basis and Fit)  ***
 ================================
  

 Atom Type    1  (C)
 ==============

 Valence Basis Sets:  10
 -----------------------
   1 S    7.680000
   1 S    5.000000
   2 S    1.280000
   2 S    2.100000
   2 S    4.600000
   2 P    0.820000
   2 P    1.480000
   2 P    2.940000
   3 D    2.200000
   4 F    3.300000

 Atom Type    2  (Br)
 ==============

 Valence Basis Sets:  20
 -----------------------
   1 S   41.300000
   1 S   32.800000
   2 S   13.900000
   2 P   19.450000
   2 P   13.100000
   3 S    7.200000
   3 S    4.950000
   3 P    7.900000
   3 P    5.050000
   3 D   10.900000
   3 D    6.050000
   3 D    3.500000
   4 S    4.500000
   4 S    2.800000
   4 S    1.800000
   4 P    3.250000
   4 P    1.950000
   4 P    1.200000
   4 D    1.800000
   4 F    1.800000

 Atom Type    3  (H)
 ==============

 Valence Basis Sets:   5
 -----------------------
   1 S    0.690000
   1 S    0.920000
   1 S    1.580000
   2 P    1.250000
   3 D    2.500000

 Atom Type    4  (N)
 ==============

 Valence Basis Sets:  10
 -----------------------
   1 S    8.740000
   1 S    5.900000
   2 S    5.150000
   2 S    2.500000
   2 S    1.500000
   2 P    3.680000
   2 P    1.880000
   2 P    1.000000
   3 D    2.200000
   4 F    3.300000


 BAS: List of all Elementary Cartesian Basis Functions
 =====================================================

 The numbering in the list below (to the right of the function characteristics) is referred
 to in print-outs of MO eigenvectors and Mulliken populations in the BAS representation
 (as contrasted to the SFO representation).

 Notes:
 1. The functions are characterized by a polynomial prefactor (powers of x,y,z and r) and
    an exponential decay factor alpha.
 2. Since the basis sets are specific for an atom TYPE, the individual functions occur on
    all atoms of that type.
 3. The word 'Core' in the left margin signals that it is a Core Function (CF) : not a
    degree of freedom in the valence set, but only used to ensure orthogonalization of
    the other valence basis functions on the frozen Core Orbitals.


 (power of) X  Y  Z  R     Alpha  on Atom
            ==========     =====     ==========

 C                                    1    2    3    4
                                  ---------------------------------------------------------------------------
            0  0  0  0     7.680      1   31   61   91
            0  0  0  0     5.000      2   32   62   92
            0  0  0  1     1.280      3   33   63   93
            0  0  0  1     2.100      4   34   64   94
            0  0  0  1     4.600      5   35   65   95
            1  0  0  0     0.820      6   36   66   96
            0  1  0  0     0.820      7   37   67   97
            0  0  1  0     0.820      8   38   68   98
            1  0  0  0     1.480      9   39   69   99
            0  1  0  0     1.480     10   40   70  100
            0  0  1  0     1.480     11   41   71  101
            1  0  0  0     2.940     12   42   72  102
            0  1  0  0     2.940     13   43   73  103
            0  0  1  0     2.940     14   44   74  104
            2  0  0  0     2.200     15   45   75  105
            1  1  0  0     2.200     16   46   76  106
            1  0  1  0     2.200     17   47   77  107
            0  2  0  0     2.200     18   48   78  108
            0  1  1  0     2.200     19   49   79  109
            0  0  2  0     2.200     20   50   80  110
            3  0  0  0     3.300     21   51   81  111
            2  1  0  0     3.300     22   52   82  112
            2  0  1  0     3.300     23   53   83  113
            1  2  0  0     3.300     24   54   84  114
            1  1  1  0     3.300     25   55   85  115
            1  0  2  0     3.300     26   56   86  116
            0  3  0  0     3.300     27   57   87  117
            0  2  1  0     3.300     28   58   88  118
            0  1  2  0     3.300     29   59   89  119
            0  0  3  0     3.300     30   60   90  120

 Br                                   5
                                  ---------------------------------------------------------------------------
            0  0  0  0    41.300    121
            0  0  0  0    32.800    122
            0  0  0  1    13.900    123
            1  0  0  0    19.450    124
            0  1  0  0    19.450    125
            0  0  1  0    19.450    126
            1  0  0  0    13.100    127
            0  1  0  0    13.100    128
            0  0  1  0    13.100    129
            0  0  0  2     7.200    130
            0  0  0  2     4.950    131
            1  0  0  1     7.900    132
            0  1  0  1     7.900    133
            0  0  1  1     7.900    134
            1  0  0  1     5.050    135
            0  1  0  1     5.050    136
            0  0  1  1     5.050    137
            2  0  0  0    10.900    138
            1  1  0  0    10.900    139
            1  0  1  0    10.900    140
            0  2  0  0    10.900    141
            0  1  1  0    10.900    142
            0  0  2  0    10.900    143
            2  0  0  0     6.050    144
            1  1  0  0     6.050    145
            1  0  1  0     6.050    146
            0  2  0  0     6.050    147
            0  1  1  0     6.050    148
            0  0  2  0     6.050    149
            2  0  0  0     3.500    150
            1  1  0  0     3.500    151
            1  0  1  0     3.500    152
            0  2  0  0     3.500    153
            0  1  1  0     3.500    154
            0  0  2  0     3.500    155
            0  0  0  3     4.500    156
            0  0  0  3     2.800    157
            0  0  0  3     1.800    158
            1  0  0  2     3.250    159
            0  1  0  2     3.250    160
            0  0  1  2     3.250    161
            1  0  0  2     1.950    162
            0  1  0  2     1.950    163
            0  0  1  2     1.950    164
            1  0  0  2     1.200    165
            0  1  0  2     1.200    166
            0  0  1  2     1.200    167
            2  0  0  1     1.800    168
            1  1  0  1     1.800    169
            1  0  1  1     1.800    170
            0  2  0  1     1.800    171
            0  1  1  1     1.800    172
            0  0  2  1     1.800    173
            3  0  0  0     1.800    174
            2  1  0  0     1.800    175
            2  0  1  0     1.800    176
            1  2  0  0     1.800    177
            1  1  1  0     1.800    178
            1  0  2  0     1.800    179
            0  3  0  0     1.800    180
            0  2  1  0     1.800    181
            0  1  2  0     1.800    182
            0  0  3  0     1.800    183

 H                                    6    7    8    9   10   11   12
                                  ---------------------------------------------------------------------------
            0  0  0  0     0.690    184  196  208  220  232  244  256
            0  0  0  0     0.920    185  197  209  221  233  245  257
            0  0  0  0     1.580    186  198  210  222  234  246  258
            1  0  0  0     1.250    187  199  211  223  235  247  259
            0  1  0  0     1.250    188  200  212  224  236  248  260
            0  0  1  0     1.250    189  201  213  225  237  249  261
            2  0  0  0     2.500    190  202  214  226  238  250  262
            1  1  0  0     2.500    191  203  215  227  239  251  263
            1  0  1  0     2.500    192  204  216  228  240  252  264
            0  2  0  0     2.500    193  205  217  229  241  253  265
            0  1  1  0     2.500    194  206  218  230  242  254  266
            0  0  2  0     2.500    195  207  219  231  243  255  267

 N                                   13   14
                                  ---------------------------------------------------------------------------
            0  0  0  0     8.740    268  298
            0  0  0  0     5.900    269  299
            0  0  0  1     5.150    270  300
            0  0  0  1     2.500    271  301
            0  0  0  1     1.500    272  302
            1  0  0  0     3.680    273  303
            0  1  0  0     3.680    274  304
            0  0  1  0     3.680    275  305
            1  0  0  0     1.880    276  306
            0  1  0  0     1.880    277  307
            0  0  1  0     1.880    278  308
            1  0  0  0     1.000    279  309
            0  1  0  0     1.000    280  310
            0  0  1  0     1.000    281  311
            2  0  0  0     2.200    282  312
            1  1  0  0     2.200    283  313
            1  0  1  0     2.200    284  314
            0  2  0  0     2.200    285  315
            0  1  1  0     2.200    286  316
            0  0  2  0     2.200    287  317
            3  0  0  0     3.300    288  318
            2  1  0  0     3.300    289  319
            2  0  1  0     3.300    290  320
            1  2  0  0     3.300    291  321
            1  1  1  0     3.300    292  322
            1  0  2  0     3.300    293  323
            0  3  0  0     3.300    294  324
            0  2  1  0     3.300    295  325
            0  1  2  0     3.300    296  326
            0  0  3  0     3.300    297  327

 Total number of charge fitting functions (nprimf)      1024
 Total number of Cartesian basis functions (naos)        327
 Total number of Cartesian core functions  (ncos)          0

 ***************************************************************************************************



                                              ***********************
                                              *  T E C H N I C A L  *
                                              ***********************
  



 =============================================================
 P A R A L L E L I Z A T I O N  and  V E C T O R I Z A T I O N
 =============================================================
  
 Nr of parallel processes:                                1
 Maximum vector length in NumInt loops:                 128



 =====================
 S C F   U P D A T E S
 =====================
  
 Max. nr. of cycles:                               200
 Convergence criterion:                              0.0000010000
   secondary criterion:                              0.0010000000

 Mix parameter (when DIIS does not apply):           0.2000000000
 Mixed ADIIS+SDIIS will be used                  
    Max number of expansion vectors:                10
    Pure ADIIS when Max([F,P]) is above              0.1000000000
    Pure SDIIS when Max([F,P]) is below              0.0010000000
 Automatic ElectronSmearing (in case of problematic SCF convergence) disabled



 =================
 P R E C I S I O N  ***  (General: NumInt, NeglectFunctionTails, ...)  ***
 =================
  

 NumInt:           Target precision:                 4.0000000000
 -------           Initial precision:                4.0000000000
                   Min. precision (optimization):    4.0000000000

 Neglect Functions:          Basis functions:        0.1000000000E-05
 ------------------          Fit functions:          0.1000000000E-05



 ===========================
 L I N E A R   S C A L I N G
 ===========================
  

 Cut-off radii density fit:                        0.1000000000E-07
 Overlap cut-off criterion AO matrix elements:     0.1000000000E-05
 Cut-offs for Coulomb potential and fitted density:0.1000000000E-07
 Cut-off criterion for Coulomb multipole terms:    0.1000000000E-07
 Progressive Convergence parameter:                 0.000000000    
 ***************************************************************************************************



                                            ***************************
                                            *  C O M P U T A T I O N  *
                                            ***************************
  

 Number of elements of the density matrix on this node (used, total):     53628     53628



 ===========================================
 Numerical Integration : Fuzzy Cells (Becke)
 ===========================================
  
 Becke grid quality: NORMAL         
  
 Lebedev angular grid order:             min:  11 max:  23
 Nr. of radial points:                   min:  46 max:  77

 Total nr. of points:      94442
 Nr. of blocks:              738
 Block length:               128
 Nr. of dummy points:         22


 Test of Precision of the Numerical Integration Grid
 ===================================================

 Integral of the Total Core Density:                   0.00000000000000



 ========================
 Density Fitting (zlmFit)
 ========================
  
 ZlmFit Fit Quality: NORMAL         
  
 Max L-expansion:                        min:   6 max:   7
 Nr. of radial interpolation points:     min:  39 max:  72



 =====
 S C F  ***  ScaSCF  ***
 =====
  
 Initial density matrix is calculated as sum of fragments

 CYCLE    1
 SCF Error: norm([F,P])=      6.285925783797, max([F,P])=      1.430413800008
 orbitals (Q,E):
 ---------------
 A :31...50          ( 2.00    -0.5364)  ( 2.00    -0.5181)  ( 2.00    -0.4974)  ( 2.00    -0.4841)
                     ( 2.00    -0.4626)  ( 2.00    -0.4493)  ( 2.00    -0.4020)  ( 2.00    -0.3833)
                     ( 2.00    -0.2981)  ( 2.00    -0.2961)  ( 0.00    -0.1907)  ( 0.00    -0.1527)
                     ( 0.00    -0.1081)  ( 0.00    -0.0873)  ( 0.00    -0.0476)  ( 0.00    -0.0438)
                     ( 0.00    -0.0236)  ( 0.00    -0.0084)  ( 0.00    -0.0051)  ( 0.00     0.0178)

 CYCLE    2
   MIX coefficients:  0.8000  0.2000
 SCF Error: norm([F,P])=      1.240763991185, max([F,P])=      0.218425180839
 orbitals (Q,E):
 ---------------
 A :31...41          ( 2.00    -0.4736)  ( 2.00    -0.4550)  ( 2.00    -0.4412)  ( 2.00    -0.4116)
                     ( 2.00    -0.4076)  ( 2.00    -0.3862)  ( 2.00    -0.3560)  ( 2.00    -0.3207)
                     ( 2.00    -0.3011)  ( 2.00    -0.2993)  ( 0.00    -0.1694)

 CYCLE    3
  SDIIS (wt  0.000): -0.5848  1.5848
 A-DIIS (wt  1.000):  0.0000  1.0000
  DIIS coefficients:  0.0000  1.0000
 SCF Error: norm([F,P])=      0.575232345258, max([F,P])=      0.098152776243
 orbitals (Q,E):
 ---------------
 A :31...41          ( 2.00    -0.3129)  ( 2.00    -0.3035)  ( 2.00    -0.2927)  ( 2.00    -0.2849)
                     ( 2.00    -0.2661)  ( 2.00    -0.2566)  ( 2.00    -0.2527)  ( 2.00    -0.2383)
                     ( 2.00    -0.2364)  ( 2.00    -0.1335)  ( 0.00    -0.0905)

 CYCLE    4
  SDIIS (wt  0.000):  0.1294  0.4408  0.4298
 A-DIIS (wt  1.000):  0.0000  0.6937  0.3063
  DIIS coefficients:  0.0000  0.6937  0.3063
 SCF Error: norm([F,P])=      0.937392249019, max([F,P])=      0.201321609511
 orbitals (Q,E):
 ---------------
 A :31...41          ( 2.00    -0.3761)  ( 2.00    -0.3559)  ( 2.00    -0.3532)  ( 2.00    -0.3291)
                     ( 2.00    -0.3137)  ( 2.00    -0.2935)  ( 2.00    -0.2877)  ( 2.00    -0.2500)
                     ( 2.00    -0.2471)  ( 2.00    -0.2245)  ( 0.00    -0.1141)

 CYCLE    5
  SDIIS (wt  0.657): -0.0506  0.3762  0.0804  0.5940
 A-DIIS (wt  0.343):  0.0000  0.0000  0.0000  1.0000
  DIIS coefficients: -0.0333  0.2473  0.0529  0.7331
 SCF Error: norm([F,P])=      0.177251749563, max([F,P])=      0.034912448064
 orbitals (Q,E):
 ---------------
 A :31...41          ( 2.00    -0.3957)  ( 2.00    -0.3761)  ( 2.00    -0.3707)  ( 2.00    -0.3447)
                     ( 2.00    -0.3325)  ( 2.00    -0.3170)  ( 2.00    -0.3074)  ( 2.00    -0.2689)
                     ( 2.00    -0.2665)  ( 2.00    -0.2363)  ( 0.00    -0.1268)

 CYCLE    6
  SDIIS (wt  0.790):  0.0070  0.0945  0.0297  0.4400  0.4288
 A-DIIS (wt  0.210):  0.0000  0.0000  0.0000  0.2968  0.7032
  DIIS coefficients:  0.0056  0.0746  0.0234  0.4098  0.4865
 SCF Error: norm([F,P])=      0.119736794192, max([F,P])=      0.021820603446
 orbitals (Q,E):
 ---------------
 A :31...41          ( 2.00    -0.3908)  ( 2.00    -0.3714)  ( 2.00    -0.3668)  ( 2.00    -0.3420)
                     ( 2.00    -0.3314)  ( 2.00    -0.3128)  ( 2.00    -0.3028)  ( 2.00    -0.2616)
                     ( 2.00    -0.2592)  ( 2.00    -0.2342)  ( 0.00    -0.1246)

 CYCLE    7
  SDIIS (wt  0.934): -0.0068  0.0436  0.0044  0.2136  0.2850  0.4603
 A-DIIS (wt  0.066):  0.0000  0.0000  0.0000  0.0000  0.0000  1.0000
  DIIS coefficients: -0.0064  0.0407  0.0041  0.1996  0.2664  0.4956
 SCF Error: norm([F,P])=      0.028558694145, max([F,P])=      0.007485151169
 orbitals (Q,E):
 ---------------
 A :31...41          ( 2.00    -0.3903)  ( 2.00    -0.3709)  ( 2.00    -0.3663)  ( 2.00    -0.3407)
                     ( 2.00    -0.3281)  ( 2.00    -0.3099)  ( 2.00    -0.3013)  ( 2.00    -0.2625)
                     ( 2.00    -0.2600)  ( 2.00    -0.2346)  ( 0.00    -0.1233)

 CYCLE    8
  SDIIS (wt  0.978): -0.0035  0.0163 -0.0001  0.0878  0.1240  0.3310  0.4446
 A-DIIS (wt  0.022):  0.0000  0.0000  0.0000  0.0000  0.0000  0.1638  0.8362
  DIIS coefficients: -0.0034  0.0159 -0.0001  0.0859  0.1212  0.3273  0.4532
 SCF Error: norm([F,P])=      0.009746613663, max([F,P])=      0.003181424195
 orbitals (Q,E):
 ---------------
 A :31...41          ( 2.00    -0.3906)  ( 2.00    -0.3713)  ( 2.00    -0.3666)  ( 2.00    -0.3410)
                     ( 2.00    -0.3289)  ( 2.00    -0.3107)  ( 2.00    -0.3017)  ( 2.00    -0.2620)
                     ( 2.00    -0.2596)  ( 2.00    -0.2343)  ( 0.00    -0.1236)

 CYCLE    9
  SDIIS (wt  1.000): -0.0007  0.0055  0.0001  0.0380  0.0570  0.1737  0.2999  0.4264
  DIIS coefficients: -0.0007  0.0055  0.0001  0.0380  0.0570  0.1737  0.2999  0.4264
 SCF Error: norm([F,P])=      0.002297085479, max([F,P])=      0.000532819358
 orbitals (Q,E):
 ---------------
 A :31...41          ( 2.00    -0.3905)  ( 2.00    -0.3711)  ( 2.00    -0.3665)  ( 2.00    -0.3411)
                     ( 2.00    -0.3291)  ( 2.00    -0.3108)  ( 2.00    -0.3018)  ( 2.00    -0.2621)
                     ( 2.00    -0.2597)  ( 2.00    -0.2343)  ( 0.00    -0.1236)

 CYCLE   10
  SDIIS (wt  1.000): -0.0004  0.0015 -0.0002  0.0089  0.0136  0.0486  0.1030  0.2380  0.5869
  DIIS coefficients: -0.0004  0.0015 -0.0002  0.0089  0.0136  0.0486  0.1030  0.2380  0.5869
 SCF Error: norm([F,P])=      0.000600888856, max([F,P])=      0.000185291506
 orbitals (Q,E):
 ---------------
 A :31...41          ( 2.00    -0.3905)  ( 2.00    -0.3711)  ( 2.00    -0.3665)  ( 2.00    -0.3411)
                     ( 2.00    -0.3290)  ( 2.00    -0.3108)  ( 2.00    -0.3018)  ( 2.00    -0.2621)
                     ( 2.00    -0.2597)  ( 2.00    -0.2343)  ( 0.00    -0.1236)

 CYCLE   11
  SDIIS (wt  1.000): -0.0000  0.0002 -0.0000  0.0018  0.0030  0.0120  0.0311  0.0926  0.3049  0.5545
  DIIS coefficients: -0.0000  0.0002 -0.0000  0.0018  0.0030  0.0120  0.0311  0.0926  0.3049  0.5545
 SCF Error: norm([F,P])=      0.000165615018, max([F,P])=      0.000041072324
 orbitals (Q,E):
 ---------------
 A :31...41          ( 2.00    -0.3905)  ( 2.00    -0.3711)  ( 2.00    -0.3665)  ( 2.00    -0.3411)
                     ( 2.00    -0.3290)  ( 2.00    -0.3108)  ( 2.00    -0.3018)  ( 2.00    -0.2621)
                     ( 2.00    -0.2597)  ( 2.00    -0.2343)  ( 0.00    -0.1236)

 CYCLE   12
  SDIIS (wt  1.000):  0.0000 -0.0000  0.0004  0.0008  0.0031  0.0087  0.0326  0.1190  0.2824  0.5529
  DIIS coefficients:  0.0000 -0.0000  0.0004  0.0008  0.0031  0.0087  0.0326  0.1190  0.2824  0.5529
 SCF Error: norm([F,P])=      0.000041704682, max([F,P])=      0.000011082080
 orbitals (Q,E):
 ---------------
 A :31...41          ( 2.00    -0.3905)  ( 2.00    -0.3711)  ( 2.00    -0.3665)  ( 2.00    -0.3411)
                     ( 2.00    -0.3290)  ( 2.00    -0.3108)  ( 2.00    -0.3018)  ( 2.00    -0.2621)
                     ( 2.00    -0.2597)  ( 2.00    -0.2343)  ( 0.00    -0.1236)

 CYCLE   13
  SDIIS (wt  1.000): -0.0000  0.0000  0.0000  0.0002  0.0010  0.0072  0.0307  0.0891  0.2749  0.5967
  DIIS coefficients: -0.0000  0.0000  0.0000  0.0002  0.0010  0.0072  0.0307  0.0891  0.2749  0.5967
 SCF Error: norm([F,P])=      0.000011543799, max([F,P])=      0.000002573949
 orbitals (Q,E):
 ---------------
 A :31...41          ( 2.00    -0.3905)  ( 2.00    -0.3711)  ( 2.00    -0.3665)  ( 2.00    -0.3411)
                     ( 2.00    -0.3290)  ( 2.00    -0.3108)  ( 2.00    -0.3018)  ( 2.00    -0.2621)
                     ( 2.00    -0.2597)  ( 2.00    -0.2343)  ( 0.00    -0.1236)

 CYCLE   14
  SDIIS (wt  1.000):  0.0000  0.0000  0.0001  0.0002  0.0020  0.0098  0.0284  0.1231  0.3510  0.4854
  DIIS coefficients:  0.0000  0.0000  0.0001  0.0002  0.0020  0.0098  0.0284  0.1231  0.3510  0.4854
 SCF Error: norm([F,P])=      0.000004545192, max([F,P])=      0.000001358308
 orbitals (Q,E):
 ---------------
 A :31...41          ( 2.00    -0.3905)  ( 2.00    -0.3711)  ( 2.00    -0.3665)  ( 2.00    -0.3411)
                     ( 2.00    -0.3290)  ( 2.00    -0.3108)  ( 2.00    -0.3018)  ( 2.00    -0.2621)
                     ( 2.00    -0.2597)  ( 2.00    -0.2343)  ( 0.00    -0.1236)

 CYCLE   15
  SDIIS (wt  1.000):  0.0000  0.0000  0.0001  0.0008  0.0036  0.0102  0.0426  0.1208  0.2441  0.5778
  DIIS coefficients:  0.0000  0.0000  0.0001  0.0008  0.0036  0.0102  0.0426  0.1208  0.2441  0.5778
 SCF Error: norm([F,P])=      0.000001054891, max([F,P])=      0.000000280416
 orbitals (Q,E):
 ---------------
 A :31...41          ( 2.00    -0.3905)  ( 2.00    -0.3711)  ( 2.00    -0.3665)  ( 2.00    -0.3411)
                     ( 2.00    -0.3290)  ( 2.00    -0.3108)  ( 2.00    -0.3018)  ( 2.00    -0.2621)
                     ( 2.00    -0.2597)  ( 2.00    -0.2343)  ( 0.00    -0.1236)

 SCF CONVERGED

 CYCLE   16
 ***************************************************************************************************



                                                *******************
                                                *  R E S U L T S  *
                                                *******************
  
 *** Using FIT density in Focky
  SDIIS (wt  1.000): -0.0000 -0.0000  0.0000  0.0003  0.0011  0.0091  0.0319  0.0916  0.2941  0.5718
  DIIS coefficients: -0.0000 -0.0000  0.0000  0.0003  0.0011  0.0091  0.0319  0.0916  0.2941  0.5718
 SCF Error: norm([F,P])=      0.000000344512, max([F,P])=      0.000000070611

 Scaled ZORA Orbital Energies, per Irrep and Spin:
 =================================================
                        Occup              E (au)              E (eV)       Diff (eV) with prev. cycle
                        -----      --------------------        ------       --------------------------
 A
              31        2.000     -0.39054248477613E+00       -10.627              -4.72E-07
              32        2.000     -0.37113286145069E+00       -10.099              -5.11E-07
              33        2.000     -0.36653283826112E+00        -9.974              -4.20E-07
              34        2.000     -0.34105781395711E+00        -9.281              -4.51E-08
              35        2.000     -0.32904792504122E+00        -8.954               9.60E-08
              36        2.000     -0.31078121994767E+00        -8.457               3.58E-07
              37        2.000     -0.30175454394436E+00        -8.211               2.58E-07
              38        2.000     -0.26214426112738E+00        -7.133               3.19E-07
              39        2.000     -0.25966090439149E+00        -7.066               3.34E-07
              40        2.000     -0.23434819384367E+00        -6.377              -8.49E-07
              41        0.000     -0.12361747558490E+00        -3.364
              42        0.000     -0.43103525524524E-01        -1.173
              43        0.000     -0.27989804981619E-01        -0.762
              44        0.000     -0.10198926596729E-01        -0.278
              45        0.000      0.25398589136712E-02         0.069
              46        0.000      0.11996369530872E-01         0.326
              47        0.000      0.24583054132975E-01         0.669
              48        0.000      0.47174918415838E-01         1.284
              49        0.000      0.52896386582177E-01         1.439
              50        0.000      0.67322885135228E-01         1.832
  
 HOMO :       40 A                -0.23434819384367E+00
 LUMO :       41 A                -0.12361747558490E+00
  


 All Electron Calculation, thus no Orbital Energies of the Core Orbitals are calculated


 Fit test: (difference of exact and fit density, squared integrated, result summed over spins)
         Sum-of-Fragments:                             0.00000000388237
         Orthogonalized Fragments:                     0.00104417917075
         SCF:                                          0.00115429322111



 ==========================
 Electron Density at Nuclei
 ==========================
  
 The electron density is calculated at points on a small sphere around the center of a nucleus.
 The printed electron density is the average electron density on these points.
 The radius of the sphere is the printed approximate finite nuclear radius.
 Note: ZORA-4 density is used, which includes small component density

         Atom        Nuclear Radius (Angstrom)             Electron Density (a.u.)
         ----        -------------------------             -----------------------
     1)   C                 0.0000320678                              127.17151
     2)   C                 0.0000320678                              127.02269
     3)   Br                0.0000536685                            33513.27807
     4)   H                 0.0000181514                                0.46512
     5)   H                 0.0000181514                                0.51381
     6)   C                 0.0000320678                              127.01590
     7)   H                 0.0000181514                                0.50718
     8)   H                 0.0000181514                                0.50061
     9)   H                 0.0000181514                                0.51036
    10)   N                 0.0000333706                              205.96951
    11)   H                 0.0000181514                                0.50339
    12)   H                 0.0000181514                                0.50221
    13)   C                 0.0000320678                              127.42029
    14)   N                 0.0000333706                              206.97293



 =======================================
 M U L L I K E N   P O P U L A T I O N S
 =======================================
  
 The survey below gives for each atom:
 a) the total charge (Z minus electrons)
 b) the net spin polarization (nr of electrons spin-A minus spin-B)
 c) for each spin the atomic electron valence density (integrated) per L-value.

 Atom              Charge    Spin density          S         P         D         F
 ----              ------    ------------       ------    ------    ------    ------
 1 C               0.0443                       3.1988    2.6552    0.0966    0.0052
 2 C               0.5775                       2.9172    2.4182    0.0825    0.0046
 3 Br             -0.2256                       7.9973   17.1666   10.0473    0.0144
 4 H              -0.1496                       1.0738    0.0701    0.0057    0.0000
 5 H              -0.1561                       1.0787    0.0717    0.0057    0.0000
[...]
                                    7.19%     2 S               2.394  0.00     8 H
                                    6.36%     1 P:x            -5.239  0.67     4 C
                                    4.99%     1 S              -6.532  1.00     8 H
                                    4.15%     1 P:x            -7.062  1.00    14 N
                                   -4.07%     2 P:x             4.589  0.00     2 C
                                    3.73%     1 P:x            -5.239  0.67     1 C
                                   -3.46%     2 P:x             7.649  0.00    13 N
                                   -3.32%     2 P:z             4.589  0.00     2 C
                                   -2.85%     2 P:z             4.589  0.00     1 C
                                   -2.80%     2 P:x             4.589  0.00     4 C
                                    2.61%     4 P:x             3.720  0.00     5 Br
                                   -2.52%     2 S               2.394  0.00    11 H
                                   -2.32%     2 P:y             4.589  0.00     1 C
                                    2.28%     2 P:y             4.589  0.00     3 C
                                    2.21%     1 P:x            -5.239  0.67     3 C
                                   -2.09%     4 P:z             3.720  0.00     5 Br
                                   -1.56%     3 S              10.158  0.00     2 C
                                   -1.43%     3 S              10.158  0.00     3 C
                                   -1.35%     2 P:z             4.589  0.00     3 C
                                    1.29%     1 P:y            -5.239  0.67     2 C
                                   -1.21%     1 P:z            -5.239  0.67     2 C
                                    1.16%     2 S               2.394  0.00     6 H
                                   -1.13%     1 S              -6.532  1.00    10 H
       1.284  0.00    48 A         15.63%     1 S              -6.532  1.00     7 H
                                   12.38%     1 P:y            -5.239  0.67     3 C
                                    9.52%     2 P:y             4.589  0.00     3 C
                                    8.97%     1 S              -6.532  1.00     8 H
                                    8.78%     1 S              -6.532  1.00    11 H
                                    8.30%     2 S               2.394  0.00    11 H
                                    7.90%     1 S              -6.532  1.00    12 H
                                    6.53%     2 S               2.394  0.00     7 H
                                    6.13%     2 P:z             4.589  0.00     2 C
                                   -5.19%     2 P:x             7.649  0.00    13 N
                                   -5.17%     3 S              10.158  0.00     1 C
                                    5.16%     1 P:z            -5.239  0.67     2 C
                                   -4.78%     2 S               2.394  0.00     6 H
                                    4.74%     1 P:x            -5.239  0.67     3 C
                                    3.95%     2 S             -13.620  2.00     1 C
                                    3.84%     1 S              -6.532  1.00     6 H
                                    3.59%     1 S              -6.532  1.00     9 H
                                   -3.40%     2 S               2.394  0.00     9 H
                                    3.19%     1 P:x            -5.239  0.67     2 C
                                    3.00%     1 P:y            -5.239  0.67     1 C
                                    2.85%     2 P:x             4.589  0.00     3 C
                                   -2.68%     2 P:x             4.589  0.00     2 C
                                   -2.53%     2 S               2.394  0.00    10 H
                                   -2.42%     2 P:z             4.589  0.00     3 C
                                   -2.27%     2 P:z             7.649  0.00    13 N
                                    2.15%     1 P:x            -7.062  1.00    13 N
                                    1.93%     1 S              -6.532  1.00    10 H
                                   -1.78%     2 P:y             4.589  0.00     2 C
                                    1.42%     3 S              40.869  0.00    12 H
                                    1.42%     2 S               2.394  0.00    12 H
                                    1.41%     2 S               2.394  0.00     8 H
                                   -1.30%     5 S               6.099  0.00     5 Br
                                    1.28%     1 P:z            -5.239  0.67     3 C
                                    1.25%     1 P:y            -5.239  0.67     2 C
                                    1.13%     1 P:z            -5.239  0.67     4 C
                                    1.08%     2 S             -13.620  2.00     3 C
       1.439  0.00    49 A         27.17%     1 S              -6.532  1.00     8 H
                                  -23.80%     2 P:z             4.589  0.00     3 C
                                   16.41%     1 S              -6.532  1.00    10 H
                                   12.76%     1 S              -6.532  1.00     7 H
                                   10.41%     1 P:z            -5.239  0.67     3 C
                                   10.28%     2 S               2.394  0.00    10 H
                                    9.76%     2 S               2.394  0.00     7 H
                                    8.07%     1 S              -6.532  1.00     9 H
                                   -6.82%     2 P:y             4.589  0.00     2 C
                                    5.80%     2 S               2.394  0.00     9 H
                                    4.66%     1 S              -6.532  1.00    11 H
                                    4.38%     2 P:y             4.589  0.00     3 C
                                    3.99%     2 P:z             4.589  0.00     4 C
                                    2.66%     2 S             -13.620  2.00     4 C
                                    2.52%     1 P:x            -5.239  0.67     4 C
                                   -2.46%     2 P:z             4.589  0.00     1 C
                                    2.43%     1 S              -6.532  1.00    12 H
                                    2.32%     2 S               2.394  0.00     8 H
                                    2.09%     1 P:x            -5.239  0.67     1 C
                                    1.57%     1 P:z            -5.239  0.67     2 C
                                   -1.55%     2 S               2.394  0.00    11 H
                                    1.52%     3 S              40.869  0.00     8 H
                                    1.42%     4 P:z             3.720  0.00     5 Br
                                   -1.35%     2 P:x             4.589  0.00     1 C
                                   -1.27%     2 S               2.394  0.00     6 H
                                   -1.25%     2 S               2.394  0.00    12 H
                                   -1.25%     3 S              10.158  0.00     3 C
                                    1.12%     3 S              40.869  0.00    10 H
                                    1.01%     1 P:x            -5.239  0.67     2 C
       1.832  0.00    50 A         32.01%     1 S              -6.532  1.00     9 H
                                   28.71%     1 S              -6.532  1.00    10 H
                                   20.60%     1 S              -6.532  1.00     6 H
                                  -17.32%     2 P:x             4.589  0.00     3 C
                                   -8.61%     2 P:y             4.589  0.00     3 C
                                   -7.64%     2 P:x             4.589  0.00     2 C
                                    7.55%     1 S              -6.532  1.00    12 H
                                    5.23%     2 S               2.394  0.00    10 H
                                    5.13%     1 P:y            -5.239  0.67     3 C
                                    5.02%     1 P:x            -5.239  0.67     3 C
                                    4.82%     2 S               2.394  0.00    12 H
                                    3.64%     2 S               2.394  0.00     9 H
                                    3.01%     3 S              40.869  0.00     9 H
                                    1.97%     1 P:x            -5.239  0.67     2 C
                                   -1.90%     2 P:z             4.589  0.00     3 C
                                    1.81%     4 P:y             3.720  0.00     5 Br
                                    1.67%     3 S              40.869  0.00    10 H
                                    1.55%     2 S             -13.620  2.00     2 C
                                    1.55%     2 P:z             4.589  0.00     2 C
                                    1.54%     4 P:z             3.720  0.00     5 Br
                                   -1.51%     3 S              10.158  0.00     2 C
                                    1.48%     1 S              -6.532  1.00     7 H
                                    1.39%     2 S               2.394  0.00     8 H
                                    1.16%     3 S              40.869  0.00     6 H
                                    1.08%     1 S              -6.532  1.00     8 H



 =======================================================================
 Electrostatic potential at the Nuclei due to electrons and other nuclei
 =======================================================================
  
         Atom                  Potential
         ----                  ---------
     1)   C                  14.67013884
     2)   C                  14.71606933
     3)   Br                180.52433896
     4)   H                   1.05890429
     5)   H                   1.09029588
     6)   C                  14.75179194
     7)   H                   1.07927520
     8)   H                   1.06998890
     9)   H                   1.07780478
    10)   N                  18.40777278
    11)   H                   1.03363604
    12)   H                   1.03432123
    13)   C                  14.74510319
    14)   N                  18.41899746
 Mulliken charges used for AMS results%charges...


    =====================
     CALCULATION RESULTS
    =====================

Energy (hartree)            -2.78191268


--------------
Atomic charges
--------------
  Index   Atom    Charge
      1      C    0.0443
      2      C    0.5775
      3     Br   -0.2256
      4      H   -0.1496
      5      H   -0.1561
      6      C    0.7244
      7      H   -0.1921
      8      H   -0.2036
      9      H   -0.1773
     10      N   -0.0458
     11      H   -0.0463
     12      H   -0.0437
     13      C    0.1370
     14      N   -0.2430


Dipole moment vector    (Debye):    -1.13241063    3.67168167    1.50055401
              magnitude (Debye):     4.12495605


-----------------------
Molecular orbitals info
-----------------------
n orbitals:              289
n spin:                    1

Note: only printing virtual orbitals with
      energy smaller than HOMO + 100. eV

HOMO (eV):              -6.3769
LUMO (eV):              -3.3638
HOMO-LUMO gap (eV):      3.0131

   Index   Energy (eV)    Occupation
     189       92.9769         0.000       
     188       92.1176         0.000       
     187       91.6551         0.000       
     186       90.7886         0.000       
     185       89.9387         0.000       
     184       87.8218         0.000       
     183       86.5430         0.000       
     182       86.1455         0.000       
     181       85.7759         0.000       
     180       84.4241         0.000       
     179       83.9021         0.000       
     178       83.2984         0.000       
     177       83.0463         0.000       
     176       81.7614         0.000       
     175       80.9283         0.000       
     174       80.5500         0.000       
     173       79.7211         0.000       
     172       79.1736         0.000       
     171       78.5370         0.000       
     170       78.3344         0.000       
     169       77.4453         0.000       
     168       76.7059         0.000       
     167       76.2897         0.000       
     166       75.4928         0.000       
     165       74.7864         0.000       
     164       73.3418         0.000       
     163       72.4702         0.000       
     162       71.8578         0.000       
     161       70.8024         0.000       
     160       68.8655         0.000       
     159       68.3280         0.000       
     158       67.5777         0.000       
     157       66.3390         0.000       
     156       65.2229         0.000       
     155       64.9994         0.000       
     154       64.2226         0.000       
     153       63.0028         0.000       
     152       62.6021         0.000       
     151       62.1970         0.000       
     150       61.0616         0.000       
     149       59.0766         0.000       
     148       57.7552         0.000       
     147       56.9664         0.000       
     146       56.4272         0.000       
     145       54.3750         0.000       
     144       53.2458         0.000       
     143       52.9853         0.000       
     142       51.7650         0.000       
     141       51.5392         0.000       
     140       50.3345         0.000       
     139       49.8006         0.000       
     138       48.8247         0.000       
     137       48.1954         0.000       
     136       47.5843         0.000       
     135       46.3665         0.000       
     134       45.4561         0.000       
     133       44.5080         0.000       
     132       44.1904         0.000       
     131       43.8917         0.000       
     130       42.9772         0.000       
     129       41.8500         0.000       
     128       41.3998         0.000       
     127       39.2981         0.000       
     126       38.3091         0.000       
     125       37.9634         0.000       
     124       37.7551         0.000       
     123       36.8241         0.000       
     122       35.5497         0.000       
     121       35.1933         0.000       
     120       35.0315         0.000       
     119       34.6646         0.000       
     118       34.2903         0.000       
     117       33.3548         0.000       
     116       32.6920         0.000       
     115       31.8962         0.000       
     114       31.6150         0.000       
     113       31.0022         0.000       
     112       30.8029         0.000       
     111       30.6700         0.000       
     110       30.2973         0.000       
     109       29.5007         0.000       
     108       29.1487         0.000       
     107       28.5185         0.000       
     106       28.2416         0.000       
     105       27.7225         0.000       
     104       27.2493         0.000       
     103       26.6437         0.000       
     102       25.9604         0.000       
     101       25.5542         0.000       
     100       25.1850         0.000       
      99       24.2502         0.000       
      98       23.7009         0.000       
      97       23.6339         0.000       
      96       23.3494         0.000       
      95       23.0355         0.000       
      94       22.4175         0.000       
      93       21.9095         0.000       
      92       21.1884         0.000       
      91       20.5485         0.000       
      90       19.1865         0.000       
      89       18.1558         0.000       
      88       17.6067         0.000       
      87       17.1990         0.000       
      86       15.7624         0.000       
      85       15.1589         0.000       
      84       14.5126         0.000       
      83       14.2455         0.000       
      82       13.3297         0.000       
      81       12.9932         0.000       
      80       12.5728         0.000       
      79       12.1641         0.000       
      78       11.6434         0.000       
      77       10.9695         0.000       
      76       10.5376         0.000       
      75       10.2771         0.000       
      74       10.0568         0.000       
      73        9.5046         0.000       
      72        9.2558         0.000       
      71        8.9356         0.000       
      70        8.3561         0.000       
      69        8.2316         0.000       
      68        8.1679         0.000       
      67        7.4858         0.000       
      66        7.3310         0.000       
      65        7.0089         0.000       
      64        6.6918         0.000       
      63        6.0381         0.000       
      62        5.7688         0.000       
      61        5.2189         0.000       
      60        5.1195         0.000       
      59        4.7911         0.000       
      58        4.6708         0.000       
      57        4.4731         0.000       
      56        4.0884         0.000       
      55        3.8556         0.000       
      54        3.5854         0.000       
      53        3.1571         0.000       
      52        2.3670         0.000       
      51        2.1406         0.000       
      50        1.8319         0.000       
      49        1.4394         0.000       
      48        1.2837         0.000       
      47        0.6689         0.000       
      46        0.3264         0.000       
      45        0.0691         0.000       
      44       -0.2775         0.000       
      43       -0.7616         0.000       
      42       -1.1729         0.000       
      41       -3.3638         0.000 < LUMO
      40       -6.3769         2.000 < HOMO
      39       -7.0657         2.000       
      38       -7.1333         2.000       
      37       -8.2112         2.000       
      36       -8.4568         2.000       
      35       -8.9538         2.000       
      34       -9.2807         2.000       
      33       -9.9739         2.000       
      32      -10.0990         2.000       
      31      -10.6272         2.000       
      30      -11.5681         2.000       
      29      -12.1535         2.000       
      28      -13.0485         2.000       
      27      -13.5067         2.000       
      26      -16.0206         2.000       
      25      -17.8390         2.000       
      24      -19.4551         2.000       
      23      -21.1094         2.000       
      22      -22.6794         2.000       
      21      -23.3134         2.000       
      20      -65.8478         2.000       
      19      -65.8500         2.000       
      18      -66.1073         2.000       
      17      -66.1107         2.000       
      16      -66.1962         2.000       
      15     -172.4268         2.000       
      14     -172.4337         2.000       
      13     -172.7812         2.000       
      12     -236.3191         2.000       
      11     -270.9525         2.000       
      10     -271.5401         2.000       
       9     -271.8824         2.000       
       8     -273.2156         2.000       
       7     -381.7899         2.000       
       6     -382.0715         2.000       
       5    -1526.5483         2.000       
       4    -1526.5513         2.000       
       3    -1526.6705         2.000       
       2    -1729.6779         2.000       
       1   -13296.1689         2.000       

AMS application finished. Exiting.
NORMAL TERMINATION
     Total cpu time:      51.62
  Total system time:       0.39
 Total elapsed time:      52.20
NORMAL TERMINATION
