
 *******************************************************************************
 *                                                                             *
 *  --------------------------------                                           *
 *   Amsterdam Modeling Suite (AMS)              2026.103                      *
 *  --------------------------------                                           *
 *                                               r260501 2026-05-01 873454b5   *
 *                                                                             *
 *                                                                             *
 *                              =================                              *
 *                              |               |                              *
 *                              |     A M S     |                              *
 *                              |               |                              *
 *                              =================                              *
 *                                                                             *
 *                                                                             *
 *   Online information and documentation:  https://www.scm.com/support/       *
 *   E-mail:  support@scm.com   info@scm.com                                   *
 *                                                                             *
 *   Scientific publications using AMS results must be properly referenced     *
 *   See the User Manuals (or the web site) for recommended citations          *
 *   The terms and conditions of the End User License Agreement apply to       *
 *   the use of AMS, https://www.scm.com/license-terms/                        *
 *                                                                             *
 **********************  x86_64_linux_intel / intelmpi  ************************
 
 Licensed to: Jong-June Jeon / University of Seoul 2026-06-02 13:44:15
 SCM User ID: u30731
  
 AMS 2026.103  RunTime: Jun03-2026 20:48:54  ShM Nodes: 1  Procs: 1

 AMS jobname: c3_eda
 AMS jobid  : 910861774

 Start   directory: /gpfs/home1/yeseo1ee/projects/eda-asm-prediction/ADF_800/adf_outputs/batch_004/qmrxn20_e2_C_D_E_A_C_A/
 Results directory: /gpfs/home1/yeseo1ee/projects/eda-asm-prediction/ADF_800/adf_outputs/batch_004/qmrxn20_e2_C_D_E_A_C_A/c3_eda.results/
 Scratch directory: /tmp/amstmp_c3_eda_kid0.910861774/

 RNG seed: 546337044 1651981132 315075408 -2121046020 -1535698454 -1146427539 -536252912 -768450609



                      ************************************************************************
                      *  ADF 2026.103  RunTime: Jun03-2026 20:48:54  ShM Nodes: 1  Procs: 1  *
                      ************************************************************************
  

       ****************************
       * SINGLE POINT CALCULATION *
       ****************************

--------
Geometry
--------
Formula: C4H8BrN2
Atoms
  Index Symbol   x (angstrom)   y (angstrom)   z (angstrom)
      1      H    -2.53269005     0.74301439     1.83214332 adf.f=fA
      2      C    -0.26350039     0.01189653    -0.29821644 adf.f=fB
      3      C    -0.21979372    -0.14353930     1.17374416 adf.f=fB
      4     Br     1.71852461     0.17580328    -1.14794668 adf.f=fB
      5      H    -1.37043263    -0.06347624     1.46808745 adf.f=fB
      6      H     0.19730857    -1.11032425     1.46943948 adf.f=fB
      7      C    -1.00899081     1.24548594    -0.73092330 adf.f=fB
      8      H    -1.18561132     1.26720411    -1.80695871 adf.f=fB
      9      H    -1.95478749     1.23344494    -0.15383357 adf.f=fB
     10      H    -0.46231715     2.14063756    -0.43566656 adf.f=fB
     11      N     0.33889058     0.96037158     1.92239556 adf.f=fB
     12      H    -0.42846115     1.60681494     2.10473658 adf.f=fB
     13      H     1.06893700     1.42599149     1.39535371 adf.f=fB
     14      C    -0.76293699    -1.19215083    -0.94334933 adf.f=fB
     15      N    -1.20193907    -2.16405414    -1.44141568 adf.f=fB

Total System Charge             -1.00000


----------------
ADF Engine Input
----------------
 
   Basis
     Type TZ2P
     Core None
   End
   XC
     GGA BLYP
     Dispersion GRIMME3 BJDAMP
   End
   Symmetry NOSYM
   NumericalQuality Normal
   Unrestricted No
   SCF
     Iterations 200
     Converge 1.0e-6
   End
   fragments
     fA c1_fragA_ts.results/adf.rkf
     fB c2_fragB_ts.results/adf.rkf
   end
   etsnocv
     enocv 0.05
     ekmin 0.5
   end
   print etslowdin
   Save TAPE21
 

 Title: *** (NO TITLE) ***

 *** adf ***



 ===========================
 A T T A C H E D   F I L E S
 ===========================
  



 ===============================
 M O D E L   P A R A M E T E R S
 ===============================
  
 DENSITY FUNCTIONAL POTENTIAL (scf)
    LDA:                               Exchange only                           == Not Default ==
    Gradient Corrections:              Becke88 LYP                             == Not Default ==

 SPIN  (restricted / unrestr.)
    Molecule:                          Restricted                               
    Fragments:                         Restricted                               

 OTHER ASPECTS
    Relativistic Corrections:          scalar (ZORA,MAPA)                       

    Nuclear Charge Density Model:      Point Charge Nuclei                      
    Core Treatment:                    Frozen Orbital(s)                        

    Hyperfine or Zeeman Interaction:   ---                                      

 Settings for Grimme D3 dispersion correction

      damping                        BJ
      s6                          1.000
      s8                          2.700
      a1                          0.430
      a2                          4.236

 Other (technical) parameters

      alpha                      14.000
      version                         4
 


 Fragment File(s)
 ----------------
 fA:
         file : c1_fragA_ts.results/adf.rkf
         jobid: 113648144
         title: *** adf ***
 fB:
         file : c2_fragB_ts.results/adf.rkf
         jobid: 309819333
         title: *** adf ***



 ===============
 G E O M E T R Y  ***  3D  Molecule  ***
 ===============
  

 ATOMS
 =====                            X Y Z                    CHARGE
                                (Angstrom)             Nucl     +Core       At.Mass
                       --------------------------    ----------------       -------
    1  H              -2.5327    0.7430    1.8321      1.00      1.00        1.0078
    2  C              -0.2635    0.0119   -0.2982      6.00      6.00       12.0000
    3  C              -0.2198   -0.1435    1.1737      6.00      6.00       12.0000
    4  Br              1.7185    0.1758   -1.1479     35.00     35.00       78.9183
    5  H              -1.3704   -0.0635    1.4681      1.00      1.00        1.0078
    6  H               0.1973   -1.1103    1.4694      1.00      1.00        1.0078
    7  C              -1.0090    1.2455   -0.7309      6.00      6.00       12.0000
    8  H              -1.1856    1.2672   -1.8070      1.00      1.00        1.0078
    9  H              -1.9548    1.2334   -0.1538      1.00      1.00        1.0078
   10  H              -0.4623    2.1406   -0.4357      1.00      1.00        1.0078
   11  N               0.3389    0.9604    1.9224      7.00      7.00       14.0031
   12  H              -0.4285    1.6068    2.1047      1.00      1.00        1.0078
   13  H               1.0689    1.4260    1.3954      1.00      1.00        1.0078
   14  C              -0.7629   -1.1922   -0.9433      6.00      6.00       12.0000
   15  N              -1.2019   -2.1641   -1.4414      7.00      7.00       14.0031


 FRAGMENTS
 =========                                     Atoms in this Fragment     Cart. coord.s (Angstrom)
                                               -------------------------------------------------------
    1  fA                                                1  H           -2.5327    0.7430    1.8321
    2  fB                                                2  C           -0.2635    0.0119   -0.2982
                                                         3  C           -0.2198   -0.1435    1.1737
                                                         7  C           -1.0090    1.2455   -0.7309
                                                        14  C           -0.7629   -1.1922   -0.9433
                                                         4  Br           1.7185    0.1758   -1.1479
                                                         5  H           -1.3704   -0.0635    1.4681
                                                         6  H            0.1973   -1.1103    1.4694
                                                         8  H           -1.1856    1.2672   -1.8070
                                                         9  H           -1.9548    1.2334   -0.1538
                                                        10  H           -0.4623    2.1406   -0.4357
                                                        12  H           -0.4285    1.6068    2.1047
                                                        13  H            1.0689    1.4260    1.3954
                                                        11  N            0.3389    0.9604    1.9224
                                                        15  N           -1.2019   -2.1641   -1.4414


 Interatomic Distance Matrix (Angstrom)
 --------------------------------------

   1)     0.000
   2)     3.197   0.000
   3)     2.563   1.481   0.000
   4)     5.223   2.163   3.041   0.000
   5)     1.461   2.086   1.190   4.055   0.000
   6)     3.320   2.144   1.094   3.289   1.885   0.000
   7)     3.024   1.505   2.486   2.959   2.585   3.442   0.000
   8)     3.916   2.168   3.436   3.172   3.540   4.278   1.091   0.000
   9)     2.126   2.091   2.582   3.950   2.157   3.572   1.108   1.824   0.000
  10)     3.374   2.142   2.805   3.021   3.051   3.825   1.090   1.779   1.769   0.000
  11)     2.881   2.489   1.446   3.456   2.044   2.124   2.990   4.041   3.106   2.756
          0.000
  12)     2.291   2.889   1.993   4.152   2.021   2.860   2.917   3.999   2.751   2.596
          1.020   0.000
  13)     3.692   2.577   2.043   2.907   2.859   2.683   2.978   3.920   3.403   2.492
          1.014   1.667   0.000
  14)     3.818   1.454   2.424   2.841   2.731   2.598   2.459   2.641   2.816   3.385
          3.750   4.152   3.960   0.000
  15)     4.576   2.631   3.448   3.754   3.592   3.397   3.488   3.451   3.710   4.482
          4.843   5.234   5.108   1.177   0.000

 Min. Distance =    1.0137
 Max. Distance =    5.2338



 =====================================
 S Y M M E T R Y ,   E L E C T R O N S
 =====================================
  
 Symmetry: NOSYM

 Irreducible Representations, including subspecies
 -------------------------------------------------
 A


 Configuration of Valence Electrons
 ==================================
 ( determined in the SCF procedure )

 Total:   82

 Net Charge: -1 (Nuclei minus Electrons)

 Aufbau principle for MO occupations will be applied through SCF cycle no.     100
 Thereafter, the program will assign electrons to MOs that are spatially
 similar to the occupied MOs in a "reference" cycle ("KeepOrbitals").
 The reference cycle is always the PREVIOUS cycle: it will evolve with
 the SCF procedure.
 ***************************************************************************************************



                                      ****************************************
                                      *  B U I L D : (Fragments, Functions)  *
                                      ****************************************
  

 The individual fragments are copies of the corresponding 'Master' fragments defined on the fragment files.
 However, they may have been rotated (and translated) with respect to the Master. The local coordinate axes
 of each fragment (which define for instance the spatial orientation in the current molecule of a fragment
 P:x orbital) are not necessarily those of the molecule.
 The local frame (if different from the molecular one) is printed to enable an interpretation of the expan-
 sion of an MO in Fragment Orbitals.



                                              ************************
                                              *  Fragment Type : fA  *
                                              ************************
  

 Fragment no.    1   (in the list of all fragments)
 -----------------
 The local coordinate frame is identical to the molecular frame.

 Check Atomic Coordinates:

                  Master (on file)          After Computed Tranformation               As specified on Input
           ----------------------------     ----------------------------     ---------------------------------
     1)    -2.53269   0.74301   1.83214     -2.53269   0.74301   1.83214       1  -2.53269   0.74301   1.83214



                                              ************************
                                              *  Fragment Type : fB  *
                                              ************************
  

 Fragment no.    2   (in the list of all fragments)
 -----------------
 The local coordinate frame is identical to the molecular frame.

 Check Atomic Coordinates:

                  Master (on file)          After Computed Tranformation               As specified on Input
           ----------------------------     ----------------------------     ---------------------------------
     1)    -0.26350   0.01190  -0.29822     -0.26350   0.01190  -0.29822       2  -0.26350   0.01190  -0.29822
     2)    -0.21979  -0.14354   1.17374     -0.21979  -0.14354   1.17374       3  -0.21979  -0.14354   1.17374
     3)    -1.00899   1.24549  -0.73092     -1.00899   1.24549  -0.73092       7  -1.00899   1.24549  -0.73092
     4)    -0.76294  -1.19215  -0.94335     -0.76294  -1.19215  -0.94335      14  -0.76294  -1.19215  -0.94335
     5)     1.71852   0.17580  -1.14795      1.71852   0.17580  -1.14795       4   1.71852   0.17580  -1.14795
     6)    -1.37043  -0.06348   1.46809     -1.37043  -0.06348   1.46809       5  -1.37043  -0.06348   1.46809
     7)     0.19731  -1.11032   1.46944      0.19731  -1.11032   1.46944       6   0.19731  -1.11032   1.46944
     8)    -1.18561   1.26720  -1.80696     -1.18561   1.26720  -1.80696       8  -1.18561   1.26720  -1.80696
     9)    -1.95479   1.23344  -0.15383     -1.95479   1.23344  -0.15383       9  -1.95479   1.23344  -0.15383
    10)    -0.46232   2.14064  -0.43567     -0.46232   2.14064  -0.43567      10  -0.46232   2.14064  -0.43567
    11)    -0.42846   1.60681   2.10474     -0.42846   1.60681   2.10474      12  -0.42846   1.60681   2.10474
    12)     1.06894   1.42599   1.39535      1.06894   1.42599   1.39535      13   1.06894   1.42599   1.39535
    13)     0.33889   0.96037   1.92240      0.33889   0.96037   1.92240      11   0.33889   0.96037   1.92240
    14)    -1.20194  -2.16405  -1.44142     -1.20194  -2.16405  -1.44142      15  -1.20194  -2.16405  -1.44142



 =======
 S F O s  ***  (Symmetrized Fragment Orbitals)  ***
 =======
  
 SFOs are linear combinations of (valence) Fragment Orbitals (FOs), such that the SFOs transform as the
 irreducible representations of the (molecular) symmetry group. Each SFO is therefore characterized by
 an irrep of the molecule and by a few (or only one) generating FOs.
 The SFOs constitute a symmetry-adapted basis for the Fock matrix. The MO eigenvector coefficients in
 this basis provide a direct interpretation of the MOs in terms of Frontier Orbital Theory.

 The SFOs are combined with auxiliary Core Functions (CFs) to ensure orthogonalization on the (frozen)
 Core Orbitals (COs). The Core-orthogonalized SFOs (CSFOs) constitute the true Fock basis.

 The FOs, and hence also the (C)SFOs are combinations of the elementary basis functions (BAS). The basis
 functions that participate in the description of the SFOs depend on the irrep. The indices of the
 involved functions are printed below for each irrep.
 (The complete list of primitive basis functions is printed in another section)

 Total nr. of (C)SFOs (summation over all irreps) :   300

 NOTE: a (C)SFO that is defined as a combination of more than one FO is usually NOT normalized.



                                       === A ===
 Nr. of SFOs :  300
 Cartesian basis functions that participate in this irrep (total number =   339) :
      1     2     3     4     5     6     7     8     9    10
     11    12    13    14    15    16    17    18    21    24
     19    22    25    20    23    26    27    28    29    30
     31    32    33    34    35    36    37    38    39    40
     41    42    43    44    45    46    47    48    51    54
     49    52    55    50    53    56    57    58    59    60
     61    62    63    64    65    66    67    68    69    70
     71    72    73    74    75    76    77    78    81    84
     79    82    85    80    83    86    87    88    89    90
     91    92    93    94    95    96    97    98    99   100
    101   102   103   104   105   106   107   108   111   114
    109   112   115   110   113   116   117   118   119   120
    121   122   123   124   125   126   127   128   129   130
    131   132   133   134   135   142   143   168   169   170
    136   139   144   147   171   174   177   137   140   145
    148   172   175   178   138   141   146   149   173   176
    179   150   156   162   180   151   157   163   181   152
    158   164   182   153   159   165   183   154   160   166
    184   155   161   167   185   186   187   188   189   190
    191   192   193   194   195   196   197   198   199   200
    201   202   203   204   205   206   207   208   209   210
    211   212   213   214   215   216   217   218   219   220
    221   222   223   224   225   226   227   228   229   230
    231   232   233   234   235   236   237   238   239   240
    241   242   243   244   245   246   247   248   249   250
    251   252   253   254   255   256   257   258   259   260
    261   262   263   264   265   266   267   268   269   270
    271   272   273   274   275   276   277   278   279   280
    281   282   283   284   285   288   291   286   289   292
    287   290   293   294   295   296   297   298   299   300
    301   302   303   304   305   306   307   308   309   310
    311   312   313   314   315   318   321   316   319   322
    317   320   323   324   325   326   327   328   329   330
    331   332   333   334   335   336   337   338   339

    SFO  (index         Fragment          Generating    Expansion in Fragment Orbitals
  indx  incl.CFs)   Occup   Orb.Energy   FragmentType  Coeff.   Orbital     on Fragment
 --------------------------------------------------------------------------------------
     1       1      2.000       0.096 au  fA            1.00      1 A               1
                        (       2.603 eV)
     2       2       --         0.328 au  fA            1.00      2 A               1
                        (       8.927 eV)
     3       3       --         0.730 au  fA            1.00      3 A               1
                        (      19.877 eV)
     4       4       --         0.730 au  fA            1.00      4 A               1
                        (      19.877 eV)
     5       5       --         0.730 au  fA            1.00      5 A               1
                        (      19.877 eV)
     6       6       --         1.855 au  fA            1.00      6 A               1
                        (      50.479 eV)
     7       7       --         2.938 au  fA            1.00      7 A               1
                        (      79.959 eV)
     8       8       --         2.938 au  fA            1.00      8 A               1
                        (      79.959 eV)
     9       9       --         2.938 au  fA            1.00      9 A               1
                        (      79.959 eV)
    10      10       --         2.938 au  fA            1.00     10 A               1
                        (      79.959 eV)
    11      11       --         2.938 au  fA            1.00     11 A               1
                        (      79.959 eV)
    12      12      2.000    -488.625 au  fB            1.00      1 A               2
                        (  -13296.169 eV)
    13      13      2.000     -63.564 au  fB            1.00      2 A               2
                        (   -1729.678 eV)
    14      14      2.000     -56.104 au  fB            1.00      3 A               2
                        (   -1526.671 eV)
    15      15      2.000     -56.100 au  fB            1.00      4 A               2
                        (   -1526.551 eV)
    16      16      2.000     -56.100 au  fB            1.00      5 A               2
                        (   -1526.548 eV)
    17      17      2.000     -14.041 au  fB            1.00      6 A               2
                        (    -382.071 eV)
    18      18      2.000     -14.031 au  fB            1.00      7 A               2
                        (    -381.790 eV)
    19      19      2.000     -10.040 au  fB            1.00      8 A               2
                        (    -273.216 eV)
    20      20      2.000      -9.991 au  fB            1.00      9 A               2
                        (    -271.882 eV)
    21      21      2.000      -9.979 au  fB            1.00     10 A               2
                        (    -271.540 eV)
    22      22      2.000      -9.957 au  fB            1.00     11 A               2
                        (    -270.952 eV)
    23      23      2.000      -8.685 au  fB            1.00     12 A               2
                        (    -236.319 eV)
    24      24      2.000      -6.350 au  fB            1.00     13 A               2
                        (    -172.781 eV)
    25      25      2.000      -6.337 au  fB            1.00     14 A               2
                        (    -172.434 eV)
    26      26      2.000      -6.337 au  fB            1.00     15 A               2
                        (    -172.427 eV)
    27      27      2.000      -2.433 au  fB            1.00     16 A               2
                        (     -66.196 eV)
    28      28      2.000      -2.430 au  fB            1.00     17 A               2
                        (     -66.111 eV)
    29      29      2.000      -2.429 au  fB            1.00     18 A               2
                        (     -66.107 eV)
    30      30      2.000      -2.420 au  fB            1.00     19 A               2
                        (     -65.850 eV)
    31      31      2.000      -2.420 au  fB            1.00     20 A               2
                        (     -65.848 eV)
    32      32      2.000      -0.857 au  fB            1.00     21 A               2
                        (     -23.313 eV)
    33      33      2.000      -0.833 au  fB            1.00     22 A               2
                        (     -22.679 eV)
    34      34      2.000      -0.776 au  fB            1.00     23 A               2
                        (     -21.109 eV)
    35      35      2.000      -0.715 au  fB            1.00     24 A               2
                        (     -19.455 eV)
    36      36      2.000      -0.656 au  fB            1.00     25 A               2
                        (     -17.839 eV)
    37      37      2.000      -0.589 au  fB            1.00     26 A               2
                        (     -16.021 eV)
    38      38      2.000      -0.496 au  fB            1.00     27 A               2
                        (     -13.507 eV)
    39      39      2.000      -0.480 au  fB            1.00     28 A               2
                        (     -13.049 eV)
    40      40      2.000      -0.447 au  fB            1.00     29 A               2
                        (     -12.153 eV)
    41      41      2.000      -0.425 au  fB            1.00     30 A               2
                        (     -11.568 eV)
    42      42      2.000      -0.391 au  fB            1.00     31 A               2
                        (     -10.627 eV)
    43      43      2.000      -0.371 au  fB            1.00     32 A               2
                        (     -10.099 eV)
    44      44      2.000      -0.367 au  fB            1.00     33 A               2
                        (      -9.974 eV)
    45      45      2.000      -0.341 au  fB            1.00     34 A               2
                        (      -9.281 eV)
    46      46      2.000      -0.329 au  fB            1.00     35 A               2
                        (      -8.954 eV)
    47      47      2.000      -0.311 au  fB            1.00     36 A               2
                        (      -8.457 eV)
    48      48      2.000      -0.302 au  fB            1.00     37 A               2
                        (      -8.211 eV)
    49      49      2.000      -0.262 au  fB            1.00     38 A               2
                        (      -7.133 eV)
    50      50      2.000      -0.260 au  fB            1.00     39 A               2
                        (      -7.066 eV)
    51      51      2.000      -0.234 au  fB            1.00     40 A               2
                        (      -6.377 eV)
    52      52       --        -0.124 au  fB            1.00     41 A               2
                        (      -3.364 eV)
    53      53       --        -0.043 au  fB            1.00     42 A               2
                        (      -1.173 eV)
    54      54       --        -0.028 au  fB            1.00     43 A               2
                        (      -0.762 eV)
    55      55       --        -0.010 au  fB            1.00     44 A               2
                        (      -0.278 eV)
    56      56       --         0.003 au  fB            1.00     45 A               2
                        (       0.069 eV)
    57      57       --         0.012 au  fB            1.00     46 A               2
                        (       0.326 eV)
    58      58       --         0.025 au  fB            1.00     47 A               2
                        (       0.669 eV)
    59      59       --         0.047 au  fB            1.00     48 A               2
                        (       1.284 eV)
    60      60       --         0.053 au  fB            1.00     49 A               2
                        (       1.439 eV)
    61      61       --         0.067 au  fB            1.00     50 A               2
                        (       1.832 eV)
    62      62       --         0.079 au  fB            1.00     51 A               2
                        (       2.141 eV)
    63      63       --         0.087 au  fB            1.00     52 A               2
                        (       2.367 eV)
    64      64       --         0.116 au  fB            1.00     53 A               2
                        (       3.157 eV)
    65      65       --         0.132 au  fB            1.00     54 A               2
                        (       3.585 eV)
    66      66       --         0.142 au  fB            1.00     55 A               2
                        (       3.856 eV)
    67      67       --         0.150 au  fB            1.00     56 A               2
                        (       4.088 eV)
    68      68       --         0.164 au  fB            1.00     57 A               2
                        (       4.473 eV)
    69      69       --         0.172 au  fB            1.00     58 A               2
                        (       4.671 eV)
    70      70       --         0.176 au  fB            1.00     59 A               2
                        (       4.791 eV)
    71      71       --         0.188 au  fB            1.00     60 A               2
                        (       5.119 eV)
    72      72       --         0.192 au  fB            1.00     61 A               2
                        (       5.219 eV)
    73      73       --         0.212 au  fB            1.00     62 A               2
                        (       5.769 eV)
    74      74       --         0.222 au  fB            1.00     63 A               2
                        (       6.038 eV)
    75      75       --         0.246 au  fB            1.00     64 A               2
                        (       6.692 eV)
    76      76       --         0.258 au  fB            1.00     65 A               2
                        (       7.009 eV)
    77      77       --         0.269 au  fB            1.00     66 A               2
                        (       7.331 eV)
    78      78       --         0.275 au  fB            1.00     67 A               2
                        (       7.486 eV)
    79      79       --         0.300 au  fB            1.00     68 A               2
                        (       8.168 eV)
    80      80       --         0.303 au  fB            1.00     69 A               2
                        (       8.232 eV)
    81      81       --         0.307 au  fB            1.00     70 A               2
                        (       8.356 eV)
    82      82       --         0.328 au  fB            1.00     71 A               2
                        (       8.936 eV)
    83      83       --         0.340 au  fB            1.00     72 A               2
                        (       9.256 eV)
    84      84       --         0.349 au  fB            1.00     73 A               2
                        (       9.505 eV)
    85      85       --         0.370 au  fB            1.00     74 A               2
                        (      10.057 eV)
    86      86       --         0.378 au  fB            1.00     75 A               2
                        (      10.277 eV)
    87      87       --         0.387 au  fB            1.00     76 A               2
                        (      10.538 eV)
    88      88       --         0.403 au  fB            1.00     77 A               2
                        (      10.969 eV)
    89      89       --         0.428 au  fB            1.00     78 A               2
                        (      11.643 eV)
    90      90       --         0.447 au  fB            1.00     79 A               2
                        (      12.164 eV)
    91      91       --         0.462 au  fB            1.00     80 A               2
                        (      12.573 eV)
    92      92       --         0.477 au  fB            1.00     81 A               2
                        (      12.993 eV)
    93      93       --         0.490 au  fB            1.00     82 A               2
                        (      13.330 eV)
    94      94       --         0.524 au  fB            1.00     83 A               2
                        (      14.246 eV)
    95      95       --         0.533 au  fB            1.00     84 A               2
                        (      14.513 eV)
    96      96       --         0.557 au  fB            1.00     85 A               2
                        (      15.159 eV)
    97      97       --         0.579 au  fB            1.00     86 A               2
                        (      15.762 eV)
    98      98       --         0.632 au  fB            1.00     87 A               2
                        (      17.199 eV)
    99      99       --         0.647 au  fB            1.00     88 A               2
                        (      17.607 eV)
   100     100       --         0.667 au  fB            1.00     89 A               2
                        (      18.156 eV)
   101     101       --         0.705 au  fB            1.00     90 A               2
                        (      19.187 eV)
   102     102       --         0.755 au  fB            1.00     91 A               2
                        (      20.548 eV)
   103     103       --         0.779 au  fB            1.00     92 A               2
                        (      21.188 eV)
   104     104       --         0.805 au  fB            1.00     93 A               2
                        (      21.910 eV)
   105     105       --         0.824 au  fB            1.00     94 A               2
                        (      22.418 eV)
   106     106       --         0.847 au  fB            1.00     95 A               2
                        (      23.035 eV)
   107     107       --         0.858 au  fB            1.00     96 A               2
                        (      23.349 eV)
   108     108       --         0.869 au  fB            1.00     97 A               2
                        (      23.634 eV)
   109     109       --         0.871 au  fB            1.00     98 A               2
                        (      23.701 eV)
   110     110       --         0.891 au  fB            1.00     99 A               2
                        (      24.250 eV)
   111     111       --         0.926 au  fB            1.00    100 A               2
                        (      25.185 eV)
   112     112       --         0.939 au  fB            1.00    101 A               2
                        (      25.554 eV)
   113     113       --         0.954 au  fB            1.00    102 A               2
                        (      25.960 eV)
   114     114       --         0.979 au  fB            1.00    103 A               2
                        (      26.644 eV)
   115     115       --         1.001 au  fB            1.00    104 A               2
                        (      27.249 eV)
   116     116       --         1.019 au  fB            1.00    105 A               2
                        (      27.722 eV)
   117     117       --         1.038 au  fB            1.00    106 A               2
                        (      28.242 eV)
   118     118       --         1.048 au  fB            1.00    107 A               2
                        (      28.518 eV)
   119     119       --         1.071 au  fB            1.00    108 A               2
                        (      29.149 eV)
   120     120       --         1.084 au  fB            1.00    109 A               2
                        (      29.501 eV)
   121     121       --         1.113 au  fB            1.00    110 A               2
                        (      30.297 eV)
   122     122       --         1.127 au  fB            1.00    111 A               2
                        (      30.670 eV)
   123     123       --         1.132 au  fB            1.00    112 A               2
                        (      30.803 eV)
   124     124       --         1.139 au  fB            1.00    113 A               2
                        (      31.002 eV)
   125     125       --         1.162 au  fB            1.00    114 A               2
                        (      31.615 eV)
   126     126       --         1.172 au  fB            1.00    115 A               2
                        (      31.896 eV)
   127     127       --         1.201 au  fB            1.00    116 A               2
                        (      32.692 eV)
   128     128       --         1.226 au  fB            1.00    117 A               2
                        (      33.355 eV)
   129     129       --         1.260 au  fB            1.00    118 A               2
                        (      34.290 eV)
   130     130       --         1.274 au  fB            1.00    119 A               2
                        (      34.665 eV)
   131     131       --         1.287 au  fB            1.00    120 A               2
                        (      35.031 eV)
   132     132       --         1.293 au  fB            1.00    121 A               2
                        (      35.193 eV)
   133     133       --         1.306 au  fB            1.00    122 A               2
                        (      35.550 eV)
   134     134       --         1.353 au  fB            1.00    123 A               2
                        (      36.824 eV)
   135     135       --         1.387 au  fB            1.00    124 A               2
                        (      37.755 eV)
   136     136       --         1.395 au  fB            1.00    125 A               2
                        (      37.963 eV)
   137     137       --         1.408 au  fB            1.00    126 A               2
                        (      38.309 eV)
   138     138       --         1.444 au  fB            1.00    127 A               2
                        (      39.298 eV)
   139     139       --         1.521 au  fB            1.00    128 A               2
                        (      41.400 eV)
   140     140       --         1.538 au  fB            1.00    129 A               2
                        (      41.850 eV)
   141     141       --         1.579 au  fB            1.00    130 A               2
                        (      42.977 eV)
   142     142       --         1.613 au  fB            1.00    131 A               2
                        (      43.892 eV)
   143     143       --         1.624 au  fB            1.00    132 A               2
                        (      44.190 eV)
   144     144       --         1.636 au  fB            1.00    133 A               2
                        (      44.508 eV)
   145     145       --         1.670 au  fB            1.00    134 A               2
                        (      45.456 eV)
   146     146       --         1.704 au  fB            1.00    135 A               2
                        (      46.366 eV)
   147     147       --         1.749 au  fB            1.00    136 A               2
                        (      47.584 eV)
   148     148       --         1.771 au  fB            1.00    137 A               2
                        (      48.195 eV)
   149     149       --         1.794 au  fB            1.00    138 A               2
                        (      48.825 eV)
   150     150       --         1.830 au  fB            1.00    139 A               2
                        (      49.801 eV)
   151     151       --         1.850 au  fB            1.00    140 A               2
                        (      50.334 eV)
   152     152       --         1.894 au  fB            1.00    141 A               2
                        (      51.539 eV)
   153     153       --         1.902 au  fB            1.00    142 A               2
                        (      51.765 eV)
   154     154       --         1.947 au  fB            1.00    143 A               2
                        (      52.985 eV)
   155     155       --         1.957 au  fB            1.00    144 A               2
                        (      53.246 eV)
   156     156       --         1.998 au  fB            1.00    145 A               2
                        (      54.375 eV)
   157     157       --         2.074 au  fB            1.00    146 A               2
                        (      56.427 eV)
   158     158       --         2.093 au  fB            1.00    147 A               2
                        (      56.966 eV)
   159     159       --         2.122 au  fB            1.00    148 A               2
                        (      57.755 eV)
   160     160       --         2.171 au  fB            1.00    149 A               2
                        (      59.077 eV)
   161     161       --         2.244 au  fB            1.00    150 A               2
                        (      61.062 eV)
   162     162       --         2.286 au  fB            1.00    151 A               2
                        (      62.197 eV)
   163     163       --         2.301 au  fB            1.00    152 A               2
                        (      62.602 eV)
   164     164       --         2.315 au  fB            1.00    153 A               2
                        (      63.003 eV)
   165     165       --         2.360 au  fB            1.00    154 A               2
                        (      64.223 eV)
   166     166       --         2.389 au  fB            1.00    155 A               2
                        (      64.999 eV)
   167     167       --         2.397 au  fB            1.00    156 A               2
                        (      65.223 eV)
   168     168       --         2.438 au  fB            1.00    157 A               2
                        (      66.339 eV)
   169     169       --         2.483 au  fB            1.00    158 A               2
                        (      67.578 eV)
   170     170       --         2.511 au  fB            1.00    159 A               2
                        (      68.328 eV)
   171     171       --         2.531 au  fB            1.00    160 A               2
                        (      68.866 eV)
   172     172       --         2.602 au  fB            1.00    161 A               2
                        (      70.802 eV)
   173     173       --         2.641 au  fB            1.00    162 A               2
                        (      71.858 eV)
   174     174       --         2.663 au  fB            1.00    163 A               2
                        (      72.470 eV)
   175     175       --         2.695 au  fB            1.00    164 A               2
                        (      73.342 eV)
   176     176       --         2.748 au  fB            1.00    165 A               2
                        (      74.786 eV)
   177     177       --         2.774 au  fB            1.00    166 A               2
                        (      75.493 eV)
   178     178       --         2.804 au  fB            1.00    167 A               2
                        (      76.290 eV)
   179     179       --         2.819 au  fB            1.00    168 A               2
                        (      76.706 eV)
   180     180       --         2.846 au  fB            1.00    169 A               2
                        (      77.445 eV)
   181     181       --         2.879 au  fB            1.00    170 A               2
                        (      78.334 eV)
   182     182       --         2.886 au  fB            1.00    171 A               2
                        (      78.537 eV)
   183     183       --         2.910 au  fB            1.00    172 A               2
                        (      79.174 eV)
   184     184       --         2.930 au  fB            1.00    173 A               2
                        (      79.721 eV)
   185     185       --         2.960 au  fB            1.00    174 A               2
                        (      80.550 eV)
   186     186       --         2.974 au  fB            1.00    175 A               2
                        (      80.928 eV)
   187     187       --         3.005 au  fB            1.00    176 A               2
                        (      81.761 eV)
   188     188       --         3.052 au  fB            1.00    177 A               2
                        (      83.046 eV)
   189     189       --         3.061 au  fB            1.00    178 A               2
                        (      83.298 eV)
   190     190       --         3.083 au  fB            1.00    179 A               2
                        (      83.902 eV)
   191     191       --         3.103 au  fB            1.00    180 A               2
                        (      84.424 eV)
   192     192       --         3.152 au  fB            1.00    181 A               2
                        (      85.776 eV)
   193     193       --         3.166 au  fB            1.00    182 A               2
                        (      86.145 eV)
   194     194       --         3.180 au  fB            1.00    183 A               2
                        (      86.543 eV)
   195     195       --         3.227 au  fB            1.00    184 A               2
                        (      87.822 eV)
   196     196       --         3.305 au  fB            1.00    185 A               2
                        (      89.939 eV)
   197     197       --         3.336 au  fB            1.00    186 A               2
                        (      90.789 eV)
   198     198       --         3.368 au  fB            1.00    187 A               2
                        (      91.655 eV)
   199     199       --         3.385 au  fB            1.00    188 A               2
                        (      92.118 eV)
   200     200       --         3.417 au  fB            1.00    189 A               2
                        (      92.977 eV)
   201     201       --         3.450 au  fB            1.00    190 A               2
                        (      93.872 eV)
   202     202       --         3.521 au  fB            1.00    191 A               2
                        (      95.808 eV)
   203     203       --         3.528 au  fB            1.00    192 A               2
                        (      95.995 eV)
   204     204       --         3.572 au  fB            1.00    193 A               2
                        (      97.208 eV)
   205     205       --         3.596 au  fB            1.00    194 A               2
                        (      97.845 eV)
   206     206       --         3.603 au  fB            1.00    195 A               2
                        (      98.030 eV)
   207     207       --         3.660 au  fB            1.00    196 A               2
                        (      99.607 eV)
   208     208       --         3.671 au  fB            1.00    197 A               2
                        (      99.891 eV)
   209     209       --         3.710 au  fB            1.00    198 A               2
                        (     100.961 eV)
   210     210       --         3.782 au  fB            1.00    199 A               2
                        (     102.901 eV)
   211     211       --         3.789 au  fB            1.00    200 A               2
                        (     103.115 eV)
   212     212       --         3.805 au  fB            1.00    201 A               2
                        (     103.552 eV)
   213     213       --         3.808 au  fB            1.00    202 A               2
                        (     103.633 eV)
   214     214       --         3.841 au  fB            1.00    203 A               2
                        (     104.522 eV)
   215     215       --         3.887 au  fB            1.00    204 A               2
                        (     105.773 eV)
   216     216       --         3.893 au  fB            1.00    205 A               2
                        (     105.928 eV)
   217     217       --         3.916 au  fB            1.00    206 A               2
                        (     106.563 eV)
   218     218       --         3.983 au  fB            1.00    207 A               2
                        (     108.378 eV)
   219     219       --         4.011 au  fB            1.00    208 A               2
                        (     109.157 eV)
   220     220       --         4.089 au  fB            1.00    209 A               2
                        (     111.254 eV)
   221     221       --         4.145 au  fB            1.00    210 A               2
                        (     112.796 eV)
   222     222       --         4.234 au  fB            1.00    211 A               2
                        (     115.226 eV)
   223     223       --         4.285 au  fB            1.00    212 A               2
                        (     116.603 eV)
   224     224       --         4.311 au  fB            1.00    213 A               2
                        (     117.309 eV)
   225     225       --         4.363 au  fB            1.00    214 A               2
                        (     118.734 eV)
   226     226       --         4.399 au  fB            1.00    215 A               2
                        (     119.713 eV)
   227     227       --         4.425 au  fB            1.00    216 A               2
                        (     120.412 eV)
   228     228       --         4.464 au  fB            1.00    217 A               2
                        (     121.465 eV)
   229     229       --         4.497 au  fB            1.00    218 A               2
                        (     122.369 eV)
   230     230       --         4.555 au  fB            1.00    219 A               2
                        (     123.939 eV)
   231     231       --         4.611 au  fB            1.00    220 A               2
                        (     125.476 eV)
   232     232       --         4.640 au  fB            1.00    221 A               2
                        (     126.255 eV)
   233     233       --         4.741 au  fB            1.00    222 A               2
                        (     129.021 eV)
   234     234       --         4.759 au  fB            1.00    223 A               2
                        (     129.500 eV)
   235     235       --         4.816 au  fB            1.00    224 A               2
                        (     131.054 eV)
   236     236       --         4.864 au  fB            1.00    225 A               2
                        (     132.365 eV)
   237     237       --         4.928 au  fB            1.00    226 A               2
                        (     134.087 eV)
   238     238       --         4.982 au  fB            1.00    227 A               2
                        (     135.556 eV)
   239     239       --         5.039 au  fB            1.00    228 A               2
                        (     137.119 eV)
   240     240       --         5.071 au  fB            1.00    229 A               2
                        (     137.983 eV)
   241     241       --         5.090 au  fB            1.00    230 A               2
                        (     138.508 eV)
   242     242       --         5.163 au  fB            1.00    231 A               2
                        (     140.500 eV)
   243     243       --         5.255 au  fB            1.00    232 A               2
                        (     142.999 eV)
   244     244       --         5.342 au  fB            1.00    233 A               2
                        (     145.350 eV)
   245     245       --         5.402 au  fB            1.00    234 A               2
                        (     146.998 eV)
   246     246       --         5.475 au  fB            1.00    235 A               2
                        (     148.984 eV)
   247     247       --         5.517 au  fB            1.00    236 A               2
                        (     150.122 eV)
   248     248       --         5.543 au  fB            1.00    237 A               2
                        (     150.820 eV)
   249     249       --         5.570 au  fB            1.00    238 A               2
                        (     151.575 eV)
   250     250       --         5.617 au  fB            1.00    239 A               2
                        (     152.852 eV)
   251     251       --         5.768 au  fB            1.00    240 A               2
                        (     156.950 eV)
   252     252       --         5.832 au  fB            1.00    241 A               2
                        (     158.709 eV)
   253     253       --         5.980 au  fB            1.00    242 A               2
                        (     162.731 eV)
   254     254       --         6.225 au  fB            1.00    243 A               2
                        (     169.400 eV)
   255     255       --         6.240 au  fB            1.00    244 A               2
                        (     169.811 eV)
   256     256       --         6.338 au  fB            1.00    245 A               2
                        (     172.471 eV)
   257     257       --         6.378 au  fB            1.00    246 A               2
                        (     173.546 eV)
   258     258       --         6.439 au  fB            1.00    247 A               2
                        (     175.220 eV)
   259     259       --         6.461 au  fB            1.00    248 A               2
                        (     175.820 eV)
   260     260       --         6.474 au  fB            1.00    249 A               2
                        (     176.158 eV)
   261     261       --         6.547 au  fB            1.00    250 A               2
                        (     178.153 eV)
   262     262       --         6.626 au  fB            1.00    251 A               2
                        (     180.306 eV)
   263     263       --         6.644 au  fB            1.00    252 A               2
                        (     180.800 eV)
   264     264       --         6.763 au  fB            1.00    253 A               2
                        (     184.029 eV)
   265     265       --         6.843 au  fB            1.00    254 A               2
                        (     186.205 eV)
   266     266       --         6.970 au  fB            1.00    255 A               2
                        (     189.654 eV)
   267     267       --         7.058 au  fB            1.00    256 A               2
                        (     192.065 eV)
   268     268       --         7.138 au  fB            1.00    257 A               2
                        (     194.226 eV)
   269     269       --         7.312 au  fB            1.00    258 A               2
                        (     198.968 eV)
   270     270       --         7.369 au  fB            1.00    259 A               2
                        (     200.513 eV)
   271     271       --         7.516 au  fB            1.00    260 A               2
                        (     204.527 eV)
   272     272       --         7.539 au  fB            1.00    261 A               2
                        (     205.149 eV)
   273     273       --         7.555 au  fB            1.00    262 A               2
                        (     205.571 eV)
   274     274       --         7.612 au  fB            1.00    263 A               2
                        (     207.133 eV)
   275     275       --         7.848 au  fB            1.00    264 A               2
                        (     213.568 eV)
   276     276       --         8.316 au  fB            1.00    265 A               2
                        (     226.277 eV)
   277     277       --         8.729 au  fB            1.00    266 A               2
                        (     237.515 eV)
   278     278       --         8.899 au  fB            1.00    267 A               2
                        (     242.141 eV)
   279     279       --         8.932 au  fB            1.00    268 A               2
                        (     243.044 eV)
   280     280       --         9.010 au  fB            1.00    269 A               2
                        (     245.188 eV)
   281     281       --         9.078 au  fB            1.00    270 A               2
                        (     247.026 eV)
   282     282       --         9.558 au  fB            1.00    271 A               2
                        (     260.077 eV)
   283     283       --         9.891 au  fB            1.00    272 A               2
                        (     269.152 eV)
   284     284       --        11.410 au  fB            1.00    273 A               2
                        (     310.477 eV)
   285     285       --        14.586 au  fB            1.00    274 A               2
                        (     396.912 eV)
   286     286       --        20.691 au  fB            1.00    275 A               2
                        (     563.027 eV)
   287     287       --        20.740 au  fB            1.00    276 A               2
                        (     564.352 eV)
   288     288       --        21.158 au  fB            1.00    277 A               2
                        (     575.744 eV)
   289     289       --        21.199 au  fB            1.00    278 A               2
                        (     576.845 eV)
   290     290       --        21.383 au  fB            1.00    279 A               2
                        (     581.860 eV)
   291     291       --        54.366 au  fB            1.00    280 A               2
                        (    1479.382 eV)
   292     292       --        56.874 au  fB            1.00    281 A               2
                        (    1547.618 eV)
   293     293       --        58.324 au  fB            1.00    282 A               2
                        (    1587.073 eV)
   294     294       --        59.643 au  fB            1.00    283 A               2
                        (    1622.979 eV)
   295     295       --        69.880 au  fB            1.00    284 A               2
                        (    1901.536 eV)
   296     296       --        71.475 au  fB            1.00    285 A               2
                        (    1944.932 eV)
   297     297       --        95.995 au  fB            1.00    286 A               2
                        (    2612.157 eV)
   298     298       --        96.054 au  fB            1.00    287 A               2
                        (    2613.763 eV)
   299     299       --        97.167 au  fB            1.00    288 A               2
                        (    2644.047 eV)
   300     300       --       619.032 au  fB            1.00    289 A               2
                        (   16844.704 eV)



 ================================
 (Slater-type)  F U N C T I O N S  ***  (Basis and Fit)  ***
 ================================
  

 Atom Type    1  (H)
 ==============

 Valence Basis Sets:   5
 -----------------------
   1 S    0.690000
   1 S    0.920000
   1 S    1.580000
   2 P    1.250000
   3 D    2.500000

 Atom Type    2  (C)
 ==============

 Valence Basis Sets:  10
 -----------------------
   1 S    7.680000
   1 S    5.000000
   2 S    1.280000
   2 S    2.100000
   2 S    4.600000
   2 P    0.820000
   2 P    1.480000
   2 P    2.940000
   3 D    2.200000
   4 F    3.300000

 Atom Type    3  (Br)
 ==============

 Valence Basis Sets:  20
 -----------------------
   1 S   41.300000
   1 S   32.800000
   2 S   13.900000
   2 P   19.450000
   2 P   13.100000
   3 S    7.200000
   3 S    4.950000
   3 P    7.900000
   3 P    5.050000
   3 D   10.900000
   3 D    6.050000
   3 D    3.500000
   4 S    4.500000
   4 S    2.800000
   4 S    1.800000
   4 P    3.250000
   4 P    1.950000
   4 P    1.200000
   4 D    1.800000
   4 F    1.800000

 Atom Type    4  (H)
 ==============

 Valence Basis Sets:   5
 -----------------------
   1 S    0.690000
   1 S    0.920000
   1 S    1.580000
   2 P    1.250000
   3 D    2.500000

 Atom Type    5  (N)
 ==============

 Valence Basis Sets:  10
 -----------------------
   1 S    8.740000
   1 S    5.900000
   2 S    5.150000
   2 S    2.500000
   2 S    1.500000
   2 P    3.680000
   2 P    1.880000
   2 P    1.000000
   3 D    2.200000
   4 F    3.300000


 BAS: List of all Elementary Cartesian Basis Functions
 =====================================================

 The numbering in the list below (to the right of the function characteristics) is referred
 to in print-outs of MO eigenvectors and Mulliken populations in the BAS representation
 (as contrasted to the SFO representation).

 Notes:
 1. The functions are characterized by a polynomial prefactor (powers of x,y,z and r) and
    an exponential decay factor alpha.
 2. Since the basis sets are specific for an atom TYPE, the individual functions occur on
    all atoms of that type.
 3. The word 'Core' in the left margin signals that it is a Core Function (CF) : not a
    degree of freedom in the valence set, but only used to ensure orthogonalization of
    the other valence basis functions on the frozen Core Orbitals.


 (power of) X  Y  Z  R     Alpha  on Atom
            ==========     =====     ==========

 H                                    1
                                  ---------------------------------------------------------------------------
            0  0  0  0     0.690      1
            0  0  0  0     0.920      2
            0  0  0  0     1.580      3
            1  0  0  0     1.250      4
            0  1  0  0     1.250      5
            0  0  1  0     1.250      6
            2  0  0  0     2.500      7
            1  1  0  0     2.500      8
            1  0  1  0     2.500      9
            0  2  0  0     2.500     10
            0  1  1  0     2.500     11
            0  0  2  0     2.500     12

 C                                    2    3    4    5
                                  ---------------------------------------------------------------------------
            0  0  0  0     7.680     13   43   73  103
            0  0  0  0     5.000     14   44   74  104
            0  0  0  1     1.280     15   45   75  105
            0  0  0  1     2.100     16   46   76  106
            0  0  0  1     4.600     17   47   77  107
            1  0  0  0     0.820     18   48   78  108
            0  1  0  0     0.820     19   49   79  109
            0  0  1  0     0.820     20   50   80  110
            1  0  0  0     1.480     21   51   81  111
            0  1  0  0     1.480     22   52   82  112
            0  0  1  0     1.480     23   53   83  113
            1  0  0  0     2.940     24   54   84  114
            0  1  0  0     2.940     25   55   85  115
            0  0  1  0     2.940     26   56   86  116
            2  0  0  0     2.200     27   57   87  117
            1  1  0  0     2.200     28   58   88  118
            1  0  1  0     2.200     29   59   89  119
            0  2  0  0     2.200     30   60   90  120
            0  1  1  0     2.200     31   61   91  121
            0  0  2  0     2.200     32   62   92  122
            3  0  0  0     3.300     33   63   93  123
            2  1  0  0     3.300     34   64   94  124
            2  0  1  0     3.300     35   65   95  125
            1  2  0  0     3.300     36   66   96  126
            1  1  1  0     3.300     37   67   97  127
            1  0  2  0     3.300     38   68   98  128
            0  3  0  0     3.300     39   69   99  129
            0  2  1  0     3.300     40   70  100  130
            0  1  2  0     3.300     41   71  101  131
            0  0  3  0     3.300     42   72  102  132

 Br                                   6
                                  ---------------------------------------------------------------------------
            0  0  0  0    41.300    133
            0  0  0  0    32.800    134
            0  0  0  1    13.900    135
            1  0  0  0    19.450    136
            0  1  0  0    19.450    137
            0  0  1  0    19.450    138
            1  0  0  0    13.100    139
            0  1  0  0    13.100    140
            0  0  1  0    13.100    141
            0  0  0  2     7.200    142
            0  0  0  2     4.950    143
            1  0  0  1     7.900    144
            0  1  0  1     7.900    145
            0  0  1  1     7.900    146
            1  0  0  1     5.050    147
            0  1  0  1     5.050    148
            0  0  1  1     5.050    149
            2  0  0  0    10.900    150
            1  1  0  0    10.900    151
            1  0  1  0    10.900    152
            0  2  0  0    10.900    153
            0  1  1  0    10.900    154
            0  0  2  0    10.900    155
            2  0  0  0     6.050    156
            1  1  0  0     6.050    157
            1  0  1  0     6.050    158
            0  2  0  0     6.050    159
            0  1  1  0     6.050    160
            0  0  2  0     6.050    161
            2  0  0  0     3.500    162
            1  1  0  0     3.500    163
            1  0  1  0     3.500    164
            0  2  0  0     3.500    165
            0  1  1  0     3.500    166
            0  0  2  0     3.500    167
            0  0  0  3     4.500    168
            0  0  0  3     2.800    169
            0  0  0  3     1.800    170
            1  0  0  2     3.250    171
            0  1  0  2     3.250    172
            0  0  1  2     3.250    173
            1  0  0  2     1.950    174
            0  1  0  2     1.950    175
            0  0  1  2     1.950    176
            1  0  0  2     1.200    177
            0  1  0  2     1.200    178
            0  0  1  2     1.200    179
            2  0  0  1     1.800    180
            1  1  0  1     1.800    181
            1  0  1  1     1.800    182
            0  2  0  1     1.800    183
            0  1  1  1     1.800    184
            0  0  2  1     1.800    185
            3  0  0  0     1.800    186
            2  1  0  0     1.800    187
            2  0  1  0     1.800    188
            1  2  0  0     1.800    189
            1  1  1  0     1.800    190
            1  0  2  0     1.800    191
            0  3  0  0     1.800    192
            0  2  1  0     1.800    193
            0  1  2  0     1.800    194
            0  0  3  0     1.800    195

 H                                    7    8    9   10   11   12   13
                                  ---------------------------------------------------------------------------
            0  0  0  0     0.690    196  208  220  232  244  256  268
            0  0  0  0     0.920    197  209  221  233  245  257  269
            0  0  0  0     1.580    198  210  222  234  246  258  270
            1  0  0  0     1.250    199  211  223  235  247  259  271
            0  1  0  0     1.250    200  212  224  236  248  260  272
            0  0  1  0     1.250    201  213  225  237  249  261  273
            2  0  0  0     2.500    202  214  226  238  250  262  274
            1  1  0  0     2.500    203  215  227  239  251  263  275
            1  0  1  0     2.500    204  216  228  240  252  264  276
            0  2  0  0     2.500    205  217  229  241  253  265  277
            0  1  1  0     2.500    206  218  230  242  254  266  278
            0  0  2  0     2.500    207  219  231  243  255  267  279

 N                                   14   15
                                  ---------------------------------------------------------------------------
            0  0  0  0     8.740    280  310
            0  0  0  0     5.900    281  311
            0  0  0  1     5.150    282  312
            0  0  0  1     2.500    283  313
            0  0  0  1     1.500    284  314
            1  0  0  0     3.680    285  315
            0  1  0  0     3.680    286  316
            0  0  1  0     3.680    287  317
            1  0  0  0     1.880    288  318
            0  1  0  0     1.880    289  319
            0  0  1  0     1.880    290  320
            1  0  0  0     1.000    291  321
            0  1  0  0     1.000    292  322
            0  0  1  0     1.000    293  323
            2  0  0  0     2.200    294  324
            1  1  0  0     2.200    295  325
            1  0  1  0     2.200    296  326
            0  2  0  0     2.200    297  327
            0  1  1  0     2.200    298  328
            0  0  2  0     2.200    299  329
            3  0  0  0     3.300    300  330
            2  1  0  0     3.300    301  331
            2  0  1  0     3.300    302  332
            1  2  0  0     3.300    303  333
            1  1  1  0     3.300    304  334
            1  0  2  0     3.300    305  335
            0  3  0  0     3.300    306  336
            0  2  1  0     3.300    307  337
            0  1  2  0     3.300    308  338
            0  0  3  0     3.300    309  339

 Total number of charge fitting functions (nprimf)      1074
 Total number of Cartesian basis functions (naos)        339
 Total number of Cartesian core functions  (ncos)          0

 ***************************************************************************************************



                                              ***********************
                                              *  T E C H N I C A L  *
                                              ***********************
  



 =============================================================
 P A R A L L E L I Z A T I O N  and  V E C T O R I Z A T I O N
 =============================================================
  
 Nr of parallel processes:                                1
 Maximum vector length in NumInt loops:                 128



 =====================
 S C F   U P D A T E S
 =====================
  
 Max. nr. of cycles:                               200
 Convergence criterion:                              0.0000010000
   secondary criterion:                              0.0010000000

 Mix parameter (when DIIS does not apply):           0.2000000000
 Mixed ADIIS+SDIIS will be used                  
    Max number of expansion vectors:                10
    Pure ADIIS when Max([F,P]) is above              0.1000000000
    Pure SDIIS when Max([F,P]) is below              0.0010000000
 Automatic ElectronSmearing (in case of problematic SCF convergence) disabled



 =================
 P R E C I S I O N  ***  (General: NumInt, NeglectFunctionTails, ...)  ***
 =================
  

 NumInt:           Target precision:                 4.0000000000
 -------           Initial precision:                4.0000000000
                   Min. precision (optimization):    4.0000000000

 Neglect Functions:          Basis functions:        0.1000000000E-05
 ------------------          Fit functions:          0.1000000000E-05



 ===========================
 L I N E A R   S C A L I N G
 ===========================
  

 Cut-off radii density fit:                        0.1000000000E-07
 Overlap cut-off criterion AO matrix elements:     0.1000000000E-05
 Cut-offs for Coulomb potential and fitted density:0.1000000000E-07
 Cut-off criterion for Coulomb multipole terms:    0.1000000000E-07
 Progressive Convergence parameter:                 0.000000000    
 ***************************************************************************************************



                                            ***************************
                                            *  C O M P U T A T I O N  *
                                            ***************************
  

 Number of elements of the density matrix on this node (used, total):     57630     57630



 ===========================================
 Numerical Integration : Fuzzy Cells (Becke)
 ===========================================
  
 Becke grid quality: NORMAL         
  
 Lebedev angular grid order:             min:  11 max:  23
 Nr. of radial points:                   min:  46 max:  77

 Total nr. of points:     100347
 Nr. of blocks:              784
 Block length:               128
 Nr. of dummy points:          5


 Test of Precision of the Numerical Integration Grid
 ===================================================

 Integral of the Total Core Density:                   0.00000000000000



 ========================
 Density Fitting (zlmFit)
 ========================
  
 ZlmFit Fit Quality: NORMAL         
  
 Max L-expansion:                        min:   6 max:   7
 Nr. of radial interpolation points:     min:  39 max:  72



 =====
 S C F  ***  ScaSCF  ***
 =====
  
 Initial density matrix is calculated as sum of fragments

 CYCLE    1
 SCF Error: norm([F,P])=      0.645174740506, max([F,P])=      0.295880261178
 orbitals (Q,E):
 ---------------
 A :32...51          ( 2.00    -0.2101)  ( 2.00    -0.2078)  ( 2.00    -0.1959)  ( 2.00    -0.1823)
                     ( 2.00    -0.1807)  ( 2.00    -0.1596)  ( 2.00    -0.1556)  ( 2.00    -0.1380)
                     ( 2.00    -0.0622)  ( 2.00     0.0070)  ( 0.00     0.0653)  ( 0.00     0.0969)
                     ( 0.00     0.1088)  ( 0.00     0.1290)  ( 0.00     0.1380)  ( 0.00     0.1503)
                     ( 0.00     0.1809)  ( 0.00     0.1854)  ( 0.00     0.1965)  ( 0.00     0.2204)

 CYCLE    2
  SDIIS (wt  0.000):  0.6701  0.3299
 A-DIIS (wt  1.000):  0.9778  0.0222
  DIIS coefficients:  0.9778  0.0222
 SCF Error: norm([F,P])=      0.970780824660, max([F,P])=      0.378624726707
 orbitals (Q,E):
 ---------------
 A :32...42          ( 2.00    -0.2080)  ( 2.00    -0.2059)  ( 2.00    -0.1940)  ( 2.00    -0.1789)
                     ( 2.00    -0.1760)  ( 2.00    -0.1539)  ( 2.00    -0.1492)  ( 2.00    -0.1383)
                     ( 2.00    -0.0634)  ( 2.00     0.0104)  ( 0.00     0.0585)

 CYCLE    3
  SDIIS (wt  0.000):  0.5969 -1.0395  1.4426
 A-DIIS (wt  1.000):  0.9750  0.0000  0.0250
  DIIS coefficients:  0.9750  0.0000  0.0250
 SCF Error: norm([F,P])=      0.905302962439, max([F,P])=      0.422211115189
 orbitals (Q,E):
 ---------------
 A :32...42          ( 2.00    -0.2080)  ( 2.00    -0.2060)  ( 2.00    -0.1941)  ( 2.00    -0.1789)
                     ( 2.00    -0.1759)  ( 2.00    -0.1538)  ( 2.00    -0.1490)  ( 2.00    -0.1384)
                     ( 2.00    -0.0636)  ( 2.00     0.0103)  ( 0.00     0.0580)

 CYCLE    4
  SDIIS (wt  0.000): -2.0000  0.0000  3.0000
 A-DIIS (wt  1.000):  0.0000  0.0000  1.0000
  DIIS coefficients:  0.0000  0.0000  1.0000
 SCF Error: norm([F,P])=      0.902844194221, max([F,P])=      0.423689298825
 orbitals (Q,E):
 ---------------
 A :32...42          ( 2.00    -0.2406)  ( 2.00    -0.1748)  ( 2.00    -0.1434)  ( 2.00    -0.1109)
                     ( 2.00    -0.0335)  ( 2.00    -0.0252)  ( 2.00    -0.0175)  ( 2.00     0.0176)
                     ( 2.00     0.0379)  ( 2.00     0.0492)  ( 0.00     0.0627)

 CYCLE    5
  SDIIS (wt  0.000): -1.3233  2.2073  0.1160
 A-DIIS (wt  1.000): -0.0000  0.9187  0.0813
  DIIS coefficients: -0.0000  0.9187  0.0813
 SCF Error: norm([F,P])=      3.989735956179, max([F,P])=      0.625688777705
 orbitals (Q,E):
 ---------------
 A :32...42          ( 2.00    -0.2243)  ( 2.00    -0.1898)  ( 2.00    -0.1827)  ( 2.00    -0.1041)
                     ( 2.00    -0.0972)  ( 2.00    -0.0798)  ( 2.00    -0.0679)  ( 2.00    -0.0400)
                     ( 2.00    -0.0121)  ( 2.00    -0.0069)  ( 0.00     0.0841)

 CYCLE    6
  SDIIS (wt  0.000):  0.3409 -2.0000  2.2042 -0.0106  0.4654
 A-DIIS (wt  1.000):  0.0000  0.0000  0.4944  0.0000  0.5056
  DIIS coefficients:  0.0000  0.0000  0.4944  0.0000  0.5056
 SCF Error: norm([F,P])=      1.128647824698, max([F,P])=      0.298713837474
 orbitals (Q,E):
 ---------------
 A :32...42          ( 2.00    -0.2115)  ( 2.00    -0.2041)  ( 2.00    -0.1910)  ( 2.00    -0.1820)
                     ( 2.00    -0.1656)  ( 2.00    -0.1338)  ( 2.00    -0.0833)  ( 2.00    -0.0730)
                     ( 2.00    -0.0696)  ( 2.00    -0.0330)  ( 0.00     0.0578)

 CYCLE    7
  SDIIS (wt  0.000): -0.1298 -2.0000  2.4165 -0.0114  0.2033  0.5214
 A-DIIS (wt  1.000): -0.0000  0.0000  0.1630  0.0000  0.0000  0.8370
  DIIS coefficients: -0.0000  0.0000  0.1630  0.0000  0.0000  0.8370
 SCF Error: norm([F,P])=      0.363230188848, max([F,P])=      0.120109359889
 orbitals (Q,E):
 ---------------
 A :32...42          ( 2.00    -0.2023)  ( 2.00    -0.1970)  ( 2.00    -0.1734)  ( 2.00    -0.1506)
                     ( 2.00    -0.1414)  ( 2.00    -0.1285)  ( 2.00    -0.1235)  ( 2.00    -0.1197)
                     ( 2.00    -0.0671)  ( 2.00     0.0036)  ( 0.00     0.0572)

 CYCLE    8
  SDIIS (wt  0.000): -0.3980  2.4867 -2.0000  0.0010 -0.0336  0.6675  0.2763
 A-DIIS (wt  1.000):  0.0000  0.0000  0.0931  0.0000  0.0000  0.6780  0.2288
  DIIS coefficients:  0.0000  0.0000  0.0931  0.0000  0.0000  0.6780  0.2288
 SCF Error: norm([F,P])=      0.820808047055, max([F,P])=      0.248244746839
 orbitals (Q,E):
 ---------------
 A :32...42          ( 2.00    -0.2048)  ( 2.00    -0.2004)  ( 2.00    -0.1840)  ( 2.00    -0.1752)
                     ( 2.00    -0.1609)  ( 2.00    -0.1504)  ( 2.00    -0.1243)  ( 2.00    -0.1219)
                     ( 2.00    -0.0679)  ( 2.00     0.0075)  ( 0.00     0.0480)

 CYCLE    9
  SDIIS (wt  0.000):  0.2436 -2.0000  1.7079  0.0003 -0.0075  0.4451  0.1386  0.4719
 A-DIIS (wt  1.000):  0.0000  0.0000  0.0000  0.0000  0.0000  0.4015  0.0000  0.5985
  DIIS coefficients:  0.0000  0.0000  0.0000  0.0000  0.0000  0.4015  0.0000  0.5985
 SCF Error: norm([F,P])=      0.237906252779, max([F,P])=      0.114016906810
 orbitals (Q,E):
 ---------------
 A :32...42          ( 2.00    -0.2133)  ( 2.00    -0.2049)  ( 2.00    -0.1820)  ( 2.00    -0.1612)
                     ( 2.00    -0.1517)  ( 2.00    -0.1369)  ( 2.00    -0.0994)  ( 2.00    -0.0970)
                     ( 2.00    -0.0796)  ( 2.00    -0.0204)  ( 0.00     0.0500)

 CYCLE   10
  SDIIS (wt  0.000):  0.2792 -0.8329  0.4772 -0.0008 -0.0138  0.1916 -0.1074  0.6559  0.3510
 A-DIIS (wt  1.000): -0.0000  0.0000  0.0000  0.0000  0.0000  0.2717  0.0000  0.4926  0.2357
  DIIS coefficients: -0.0000  0.0000  0.0000  0.0000  0.0000  0.2717  0.0000  0.4926  0.2357
 SCF Error: norm([F,P])=      0.403799469999, max([F,P])=      0.130206071391
 orbitals (Q,E):
 ---------------
 A :32...42          ( 2.00    -0.2097)  ( 2.00    -0.2048)  ( 2.00    -0.1888)  ( 2.00    -0.1822)
                     ( 2.00    -0.1657)  ( 2.00    -0.1443)  ( 2.00    -0.1016)  ( 2.00    -0.0992)
                     ( 2.00    -0.0755)  ( 2.00    -0.0093)  ( 0.00     0.0468)

 CYCLE   11
  SDIIS (wt  0.736):  0.1031 -2.0000  1.8851 -0.0001 -0.0280  0.0802 -0.0115  0.2854  0.1826  0.5033
 A-DIIS (wt  0.264):  0.0000  0.0000  0.0000  0.0000  0.0000  0.0000  0.0000  0.1606  0.0000  0.8394
  DIIS coefficients:  0.0758 -1.4713  1.3868 -0.0001 -0.0206  0.0590 -0.0085  0.2524  0.1343  0.5921
 SCF Error: norm([F,P])=      0.095630558570, max([F,P])=      0.027170725063
 orbitals (Q,E):
 ---------------
 A :32...42          ( 2.00    -0.2121)  ( 2.00    -0.2056)  ( 2.00    -0.1867)  ( 2.00    -0.1820)
                     ( 2.00    -0.1657)  ( 2.00    -0.1477)  ( 2.00    -0.1088)  ( 2.00    -0.1065)
                     ( 2.00    -0.0760)  ( 2.00    -0.0039)  ( 0.00     0.0428)

 CYCLE   12
  SDIIS (wt  0.792): -0.0123  0.0089  0.0000 -0.0065 -0.0144  0.0128  0.0497 -0.0051  0.5404  0.4264
 A-DIIS (wt  0.208):  0.0000  0.0000  0.0000  0.0000  0.0000  0.0000  0.0000  0.0000  0.4093  0.5907
  DIIS coefficients: -0.0097  0.0071  0.0000 -0.0051 -0.0114  0.0101  0.0394 -0.0041  0.5131  0.4606
 SCF Error: norm([F,P])=      0.081968204759, max([F,P])=      0.021599018881
 orbitals (Q,E):
 ---------------
 A :32...42          ( 2.00    -0.2104)  ( 2.00    -0.2050)  ( 2.00    -0.1885)  ( 2.00    -0.1819)
                     ( 2.00    -0.1662)  ( 2.00    -0.1466)  ( 2.00    -0.1070)  ( 2.00    -0.1047)
                     ( 2.00    -0.0754)  ( 2.00    -0.0044)  ( 0.00     0.0447)

 CYCLE   13
  SDIIS (wt  0.978): -0.0017  0.0000 -0.0024 -0.0103  0.0030  0.0122  0.0031  0.2756  0.2691  0.4515
 A-DIIS (wt  0.022):  0.0000  0.0000  0.0000  0.0000  0.0000  0.0000  0.0000  0.0000  0.0000  1.0000
  DIIS coefficients: -0.0017  0.0000 -0.0023 -0.0101  0.0029  0.0119  0.0030  0.2697  0.2633  0.4633
 SCF Error: norm([F,P])=      0.012669544256, max([F,P])=      0.003142824319
 orbitals (Q,E):
 ---------------
 A :32...42          ( 2.00    -0.2107)  ( 2.00    -0.2050)  ( 2.00    -0.1880)  ( 2.00    -0.1819)
                     ( 2.00    -0.1658)  ( 2.00    -0.1465)  ( 2.00    -0.1067)  ( 2.00    -0.1044)
                     ( 2.00    -0.0755)  ( 2.00    -0.0050)  ( 0.00     0.0445)

 CYCLE   14
  SDIIS (wt  1.000):  0.0000 -0.0003 -0.0030  0.0007 -0.0013  0.0015  0.0622  0.0533  0.1842  0.7028
  DIIS coefficients:  0.0000 -0.0003 -0.0030  0.0007 -0.0013  0.0015  0.0622  0.0533  0.1842  0.7028
 SCF Error: norm([F,P])=      0.001815539175, max([F,P])=      0.000409409599
 orbitals (Q,E):
 ---------------
 A :32...42          ( 2.00    -0.2107)  ( 2.00    -0.2050)  ( 2.00    -0.1880)  ( 2.00    -0.1819)
                     ( 2.00    -0.1658)  ( 2.00    -0.1465)  ( 2.00    -0.1067)  ( 2.00    -0.1044)
                     ( 2.00    -0.0756)  ( 2.00    -0.0050)  ( 0.00     0.0446)

 CYCLE   15
[...]
       0.13632       299 A         36.54%     2 A               8.927  0.00     1 fA
                                   21.46%    34 A              -9.281  2.00     2 fB
                                    9.63%    37 A              -8.211  2.00     2 fB
                                    8.54%     1 A               2.603  2.00     1 fA
                                    4.18%     3 A              19.877  0.00     1 fA
                                    3.00%    41 A              -3.364  0.00     2 fB
                                    2.98%    27 A             -13.507  2.00     2 fB
                                    2.06%    43 A              -0.762  0.00     2 fB
                                    1.86%    42 A              -1.173  0.00     2 fB
                                    1.69%     6 A              50.479  0.00     1 fA
                                    1.46%    28 A             -13.049  2.00     2 fB
                                    1.25%     5 A              19.877  0.00     1 fA
      -0.06024         3 A         17.58%    38 A              -7.133  2.00     2 fB
                                    9.99%    49 A               1.439  0.00     2 fB
                                    8.44%    33 A              -9.974  2.00     2 fB
                                    8.23%    39 A              -7.066  2.00     2 fB
                                    7.44%    32 A             -10.099  2.00     2 fB
                                    7.20%    46 A               0.326  0.00     2 fB
                                    6.65%    59 A               4.791  0.00     2 fB
                                    6.49%    47 A               0.669  0.00     2 fB
                                    4.47%    50 A               1.832  0.00     2 fB
                                    3.93%    36 A              -8.457  2.00     2 fB
                                    2.85%    43 A              -0.762  0.00     2 fB
                                    2.55%    40 A              -6.377  2.00     2 fB
                                    1.71%    61 A               5.219  0.00     2 fB
                                    1.70%    57 A               4.473  0.00     2 fB
                                    1.56%    37 A              -8.211  2.00     2 fB
                                    1.17%    54 A               3.585  0.00     2 fB
                                    1.01%    34 A              -9.281  2.00     2 fB
       0.06024       298 A         16.51%    38 A              -7.133  2.00     2 fB
                                   10.60%    49 A               1.439  0.00     2 fB
                                    7.88%    39 A              -7.066  2.00     2 fB
                                    7.61%    46 A               0.326  0.00     2 fB
                                    7.50%    33 A              -9.974  2.00     2 fB
                                    7.06%    59 A               4.791  0.00     2 fB
                                    6.91%    47 A               0.669  0.00     2 fB
                                    6.67%    32 A             -10.099  2.00     2 fB
                                    4.75%    50 A               1.832  0.00     2 fB
                                    3.70%    36 A              -8.457  2.00     2 fB
                                    3.07%    43 A              -0.762  0.00     2 fB
                                    2.36%    40 A              -6.377  2.00     2 fB
                                    1.82%    61 A               5.219  0.00     2 fB
                                    1.80%    57 A               4.473  0.00     2 fB
                                    1.25%    54 A               3.585  0.00     2 fB
                                    1.21%    34 A              -9.281  2.00     2 fB
                                    1.14%    37 A              -8.211  2.00     2 fB
      -0.05344         4 A         30.77%    39 A              -7.066  2.00     2 fB
                                   12.40%    55 A               3.856  0.00     2 fB
                                    9.88%    38 A              -7.133  2.00     2 fB
                                    8.10%    58 A               4.671  0.00     2 fB
                                    7.28%    61 A               5.219  0.00     2 fB
                                    5.68%    45 A               0.069  0.00     2 fB
                                    4.35%    59 A               4.791  0.00     2 fB
                                    3.01%    51 A               2.141  0.00     2 fB
                                    1.72%    40 A              -6.377  2.00     2 fB
                                    1.56%    34 A              -9.281  2.00     2 fB
                                    1.48%    32 A             -10.099  2.00     2 fB
                                    1.46%    27 A             -13.507  2.00     2 fB
                                    1.45%    37 A              -8.211  2.00     2 fB
                                    1.29%    52 A               2.367  0.00     2 fB
                                    1.21%    31 A             -10.627  2.00     2 fB
                                    1.15%    53 A               3.157  0.00     2 fB
       0.05344       297 A         29.08%    39 A              -7.066  2.00     2 fB
                                   13.08%    55 A               3.856  0.00     2 fB
                                    9.34%    38 A              -7.133  2.00     2 fB
                                    8.55%    58 A               4.671  0.00     2 fB
                                    7.68%    61 A               5.219  0.00     2 fB
                                    5.99%    45 A               0.069  0.00     2 fB
                                    4.59%    59 A               4.791  0.00     2 fB
                                    3.17%    51 A               2.141  0.00     2 fB
                                    1.65%    27 A             -13.507  2.00     2 fB
                                    1.63%    40 A              -6.377  2.00     2 fB
                                    1.60%    34 A              -9.281  2.00     2 fB
                                    1.37%    52 A               2.367  0.00     2 fB
                                    1.33%    32 A             -10.099  2.00     2 fB
                                    1.24%    37 A              -8.211  2.00     2 fB
                                    1.21%    53 A               3.157  0.00     2 fB
                                    1.15%    31 A             -10.627  2.00     2 fB
      -0.05247         5 A         26.51%    37 A              -8.211  2.00     2 fB
                                   10.46%    38 A              -7.133  2.00     2 fB
                                    7.96%    46 A               0.326  0.00     2 fB
                                    7.34%    47 A               0.669  0.00     2 fB
                                    5.03%    33 A              -9.974  2.00     2 fB
                                    4.50%    52 A               2.367  0.00     2 fB
                                    3.20%    53 A               3.157  0.00     2 fB
                                    2.57%    43 A              -0.762  0.00     2 fB
                                    2.42%    44 A              -0.278  0.00     2 fB
                                    2.32%    60 A               5.119  0.00     2 fB
                                    2.19%    61 A               5.219  0.00     2 fB
                                    1.86%    48 A               1.284  0.00     2 fB
                                    1.82%    35 A              -8.954  2.00     2 fB
                                    1.78%    34 A              -9.281  2.00     2 fB
                                    1.74%    42 A              -1.173  0.00     2 fB
                                    1.64%    50 A               1.832  0.00     2 fB
                                    1.56%    29 A             -12.153  2.00     2 fB
                                    1.22%    59 A               4.791  0.00     2 fB
                                    1.17%    45 A               0.069  0.00     2 fB
                                    1.02%    31 A             -10.627  2.00     2 fB
       0.05247       296 A         24.40%    37 A              -8.211  2.00     2 fB
                                    9.72%    38 A              -7.133  2.00     2 fB
                                    8.31%    46 A               0.326  0.00     2 fB
                                    7.70%    47 A               0.669  0.00     2 fB
                                    4.70%    52 A               2.367  0.00     2 fB
                                    3.93%    33 A              -9.974  2.00     2 fB
                                    3.41%    53 A               3.157  0.00     2 fB
                                    2.79%    43 A              -0.762  0.00     2 fB
                                    2.57%    44 A              -0.278  0.00     2 fB
                                    2.46%    60 A               5.119  0.00     2 fB
                                    2.31%    61 A               5.219  0.00     2 fB
                                    1.97%    48 A               1.284  0.00     2 fB
                                    1.96%    29 A             -12.153  2.00     2 fB
                                    1.93%    42 A              -1.173  0.00     2 fB
                                    1.72%    50 A               1.832  0.00     2 fB
                                    1.72%    35 A              -8.954  2.00     2 fB
                                    1.57%    34 A              -9.281  2.00     2 fB
                                    1.28%    59 A               4.791  0.00     2 fB
                                    1.22%    45 A               0.069  0.00     2 fB
 Mulliken charges used for AMS results%charges...


    =====================
     CALCULATION RESULTS
    =====================

Energy (hartree)            -0.06894946


--------------
Atomic charges
--------------
  Index   Atom    Charge
      1      H   -0.6074
      2      C    0.0709
      3      C    0.5841
      4     Br   -0.4509
      5      H   -0.0351
      6      H   -0.2227
      7      C    0.7249
      8      H   -0.2524
      9      H   -0.1749
     10      H   -0.2210
     11      N   -0.0812
     12      H   -0.0702
     13      H   -0.0737
     14      C    0.1396
     15      N   -0.3299


Dipole moment vector    (Debye):     3.81010743    1.59893035   -1.80353573
              magnitude (Debye):     4.50846293


-----------------------
Molecular orbitals info
-----------------------
n orbitals:              300
n spin:                    1

Note: only printing virtual orbitals with
      energy smaller than HOMO + 100. eV

HOMO (eV):              -0.1375
LUMO (eV):               1.2130
HOMO-LUMO gap (eV):      1.3505

   Index   Energy (eV)    Occupation
     199       98.4864         0.000       
     198       97.5666         0.000       
     197       96.8318         0.000       
     196       96.1219         0.000       
     195       95.5820         0.000       
     194       94.8844         0.000       
     193       93.5773         0.000       
     192       91.4411         0.000       
     191       90.7322         0.000       
     190       90.1244         0.000       
     189       89.3341         0.000       
     188       88.5472         0.000       
     187       88.0538         0.000       
     186       87.8012         0.000       
     185       87.0035         0.000       
     184       85.6442         0.000       
     183       85.0633         0.000       
     182       84.5924         0.000       
     181       84.1923         0.000       
     180       83.5849         0.000       
     179       82.9328         0.000       
     178       82.5220         0.000       
     177       81.8382         0.000       
     176       81.2812         0.000       
     175       80.3828         0.000       
     174       80.1977         0.000       
     173       79.5003         0.000       
     172       78.8523         0.000       
     171       77.6456         0.000       
     170       77.5204         0.000       
     169       76.2435         0.000       
     168       75.5353         0.000       
     167       74.2853         0.000       
     166       73.8271         0.000       
     165       72.7117         0.000       
     164       71.6961         0.000       
     163       70.9217         0.000       
     162       70.4092         0.000       
     161       69.4742         0.000       
     160       68.7499         0.000       
     159       67.9619         0.000       
     158       67.0613         0.000       
     157       66.5272         0.000       
     156       66.1056         0.000       
     155       65.0999         0.000       
     154       63.2354         0.000       
     153       62.0883         0.000       
     152       62.0104         0.000       
     151       60.7220         0.000       
     150       58.6824         0.000       
     149       57.6169         0.000       
     148       57.2657         0.000       
     147       56.8521         0.000       
     146       55.8796         0.000       
     145       54.6585         0.000       
     144       53.9622         0.000       
     143       53.0240         0.000       
     142       52.6584         0.000       
     141       52.2268         0.000       
     140       51.5975         0.000       
     139       50.2866         0.000       
     138       49.6641         0.000       
     137       48.8381         0.000       
     136       48.4926         0.000       
     135       47.6575         0.000       
     134       46.6380         0.000       
     133       45.9416         0.000       
     132       44.5958         0.000       
     131       43.4253         0.000       
     130       42.7872         0.000       
     129       42.5577         0.000       
     128       41.2275         0.000       
     127       40.6280         0.000       
     126       39.8427         0.000       
     125       39.7048         0.000       
     124       39.2622         0.000       
     123       39.0435         0.000       
     122       38.7007         0.000       
     121       38.0247         0.000       
     120       36.9031         0.000       
     119       36.5962         0.000       
     118       36.1361         0.000       
     117       35.6026         0.000       
     116       35.1543         0.000       
     115       34.7196         0.000       
     114       34.4749         0.000       
     113       34.0426         0.000       
     112       33.3271         0.000       
     111       33.0523         0.000       
     110       32.4792         0.000       
     109       32.1399         0.000       
     108       31.6739         0.000       
     107       31.0464         0.000       
     106       30.2868         0.000       
     105       29.9557         0.000       
     104       29.0915         0.000       
     103       28.4546         0.000       
     102       28.0663         0.000       
     101       27.8171         0.000       
     100       27.7385         0.000       
      99       27.2737         0.000       
      98       27.1035         0.000       
      97       26.4230         0.000       
      96       25.6035         0.000       
      95       24.8285         0.000       
      94       23.8766         0.000       
      93       23.6936         0.000       
      92       23.1682         0.000       
      91       22.4064         0.000       
      90       21.0711         0.000       
      89       20.5620         0.000       
      88       19.8736         0.000       
      87       19.4751         0.000       
      86       19.0601         0.000       
      85       18.4044         0.000       
      84       17.5391         0.000       
      83       17.1817         0.000       
      82       16.6298         0.000       
      81       16.3228         0.000       
      80       16.0443         0.000       
      79       15.0216         0.000       
      78       14.9725         0.000       
      77       14.3488         0.000       
      76       14.1385         0.000       
      75       13.6633         0.000       
      74       13.5215         0.000       
      73       13.0455         0.000       
      72       12.7739         0.000       
      71       12.4321         0.000       
      70       12.2080         0.000       
      69       11.7127         0.000       
      68       11.5520         0.000       
      67       11.3624         0.000       
      66       11.1435         0.000       
      65       10.1673         0.000       
      64        9.9151         0.000       
      63        9.4202         0.000       
      62        8.9591         0.000       
      61        8.7710         0.000       
      60        8.7611         0.000       
      59        8.3587         0.000       
      58        8.2656         0.000       
      57        7.9801         0.000       
      56        7.7738         0.000       
      55        7.4180         0.000       
      54        7.2367         0.000       
      53        6.4829         0.000       
      52        6.0290         0.000       
      51        5.6927         0.000       
      50        5.4073         0.000       
      49        5.0531         0.000       
      48        4.9536         0.000       
      47        4.2322         0.000       
      46        3.9508         0.000       
      45        3.7365         0.000       
      44        3.3454         0.000       
      43        2.9060         0.000       
      42        1.2130         0.000 < LUMO
      41       -0.1375         2.000 < HOMO
      40       -2.0556         2.000       
      39       -2.8387         2.000       
      38       -2.9029         2.000       
      37       -3.9853         2.000       
      36       -4.5127         2.000       
      35       -4.9499         2.000       
      34       -5.1164         2.000       
      33       -5.5789         2.000       
      32       -5.7331         2.000       
      31       -6.2613         2.000       
      30       -7.1715         2.000       
      29       -7.6689         2.000       
      28       -8.5764         2.000       
      27       -8.9534         2.000       
      26      -11.5686         2.000       
      25      -13.3834         2.000       
      24      -15.0096         2.000       
      23      -16.6780         2.000       
      22      -18.4655         2.000       
      21      -18.9796         2.000       
      20      -61.3216         2.000       
      19      -61.3238         2.000       
      18      -61.4976         2.000       
      17      -61.5001         2.000       
      16      -61.5586         2.000       
      15     -167.8806         2.000       
      14     -167.8860         2.000       
      13     -168.1198         2.000       
      12     -231.7331         2.000       
      11     -266.5763         2.000       
      10     -266.8726         2.000       
       9     -267.6337         2.000       
       8     -268.4501         2.000       
       7     -377.3702         2.000       
       6     -378.0653         2.000       
       5    -1521.9728         2.000       
       4    -1521.9753         2.000       
       3    -1522.0532         2.000       
       2    -1725.0911         2.000       
       1   -13291.6238         2.000       

AMS application finished. Exiting.
NORMAL TERMINATION
     Total cpu time:     103.91
  Total system time:       0.39
 Total elapsed time:     104.61
NORMAL TERMINATION
