
 *******************************************************************************
 *                                                                             *
 *  --------------------------------                                           *
 *   Amsterdam Modeling Suite (AMS)              2026.103                      *
 *  --------------------------------                                           *
 *                                               r260501 2026-05-01 873454b5   *
 *                                                                             *
 *                                                                             *
 *                              =================                              *
 *                              |               |                              *
 *                              |     A M S     |                              *
 *                              |               |                              *
 *                              =================                              *
 *                                                                             *
 *                                                                             *
 *   Online information and documentation:  https://www.scm.com/support/       *
 *   E-mail:  support@scm.com   info@scm.com                                   *
 *                                                                             *
 *   Scientific publications using AMS results must be properly referenced     *
 *   See the User Manuals (or the web site) for recommended citations          *
 *   The terms and conditions of the End User License Agreement apply to       *
 *   the use of AMS, https://www.scm.com/license-terms/                        *
 *                                                                             *
 **********************  x86_64_linux_intel / intelmpi  ************************
 
 Licensed to: Jong-June Jeon / University of Seoul 2026-06-02 13:44:15
 SCM User ID: u30731
  
 AMS 2026.103  RunTime: Jun02-2026 22:02:21  ShM Nodes: 1  Procs: 1

 AMS jobname: c1_fragA_ts
 AMS jobid  : 1639830658

 Start   directory: /gpfs/home1/yeseo1ee/projects/eda-asm-prediction/ADF_800/adf_outputs/batch_000/dipolar_001177/
 Results directory: /gpfs/home1/yeseo1ee/projects/eda-asm-prediction/ADF_800/adf_outputs/batch_000/dipolar_001177/c1_fragA_ts.results/
 Scratch directory: /tmp/amstmp_c1_fragA_ts_kid0.1639830658/

 RNG seed: 406906876 -347020230 809530623 -842063393 1313841553 -1097758784 -1193799365 311752769



                      ************************************************************************
                      *  ADF 2026.103  RunTime: Jun02-2026 22:02:21  ShM Nodes: 1  Procs: 1  *
                      ************************************************************************
  

       ****************************
       * SINGLE POINT CALCULATION *
       ****************************

--------
Geometry
--------
Formula: C5H11N
Atoms
  Index Symbol   x (angstrom)   y (angstrom)   z (angstrom)
      1      C    -2.67735000    -1.93567000     0.74327000
      2      C    -1.90344000    -2.71281000     1.75186000
      3      N    -2.38308000    -1.86968000    -0.56784000
      4      C    -1.32467000    -2.18292000    -1.33041000
      5      C    -0.34327000    -3.26209000    -0.98364000
      6      C    -1.44517000    -1.84120000    -2.78770000
      7      H    -3.68980000    -1.61270000     0.97014000
      8      H    -1.89652000    -3.80525000     1.56614000
      9      H    -2.35078000    -2.55516000     2.74502000
     10      H    -0.84967000    -2.39087000     1.81079000
     11      H    -3.06489000    -1.30392000    -1.07375000
     12      H    -0.67008000    -4.23405000    -1.41066000
     13      H    -0.19066000    -3.40705000     0.08926000
     14      H     0.63529000    -3.03842000    -1.43248000
     15      H    -0.47233000    -1.54800000    -3.20904000
     16      H    -1.79732000    -2.70789000    -3.38609000
     17      H    -2.14720000    -1.00925000    -2.95828000

Total System Charge              0.00000


----------------
ADF Engine Input
----------------
 
   Basis
     Type TZ2P
     Core None
   End
   XC
     GGA BLYP
     Dispersion GRIMME3 BJDAMP
   End
   Symmetry NOSYM
   NumericalQuality Normal
   Unrestricted No
   SCF
     Iterations 200
     Converge 1.0e-6
   End
   Save TAPE21
 

 Title: *** (NO TITLE) ***

 *** adf ***



 ===========================
 A T T A C H E D   F I L E S
 ===========================
  



 ===============================
 M O D E L   P A R A M E T E R S
 ===============================
  
 DENSITY FUNCTIONAL POTENTIAL (scf)
    LDA:                               Exchange only                           == Not Default ==
    Gradient Corrections:              Becke88 LYP                             == Not Default ==

 SPIN  (restricted / unrestr.)
    Molecule:                          Restricted                               
    Fragments:                         Restricted                               

 OTHER ASPECTS
    Relativistic Corrections:          scalar (ZORA,MAPA)                       

    Nuclear Charge Density Model:      Point Charge Nuclei                      
    Core Treatment:                    Frozen Orbital(s)                        

    Hyperfine or Zeeman Interaction:   ---                                      

 Settings for Grimme D3 dispersion correction

      damping                        BJ
      s6                          1.000
      s8                          2.700
      a1                          0.430
      a2                          4.236

 Other (technical) parameters

      alpha                      14.000
      version                         4
 


 Fragment File(s)
 ----------------
 C:
         file : /gpfs/home1/yeseo1ee/projects/eda-asm-prediction/ADF_800/adf_outputs/batch_000/dipolar_001177/c1_fragA_ts.results/t21.50BA88D5.C
         jobid: 0
         title: Carbon (TZ2P)
 N:
         file : /gpfs/home1/yeseo1ee/projects/eda-asm-prediction/ADF_800/adf_outputs/batch_000/dipolar_001177/c1_fragA_ts.results/t21.44EAA48D.N
         jobid: 0
         title: Nitrogen (TZ2P)
 H:
         file : /gpfs/home1/yeseo1ee/projects/eda-asm-prediction/ADF_800/adf_outputs/batch_000/dipolar_001177/c1_fragA_ts.results/t21.6F35CCAB.H
         jobid: 0
         title: Hydrogen (TZ2P)



 ===============
 G E O M E T R Y  ***  3D  Molecule  ***
 ===============
  

 ATOMS
 =====                            X Y Z                    CHARGE
                                (Angstrom)             Nucl     +Core       At.Mass
                       --------------------------    ----------------       -------
    1  C              -2.6774   -1.9357    0.7433      6.00      6.00       12.0000
    2  C              -1.9034   -2.7128    1.7519      6.00      6.00       12.0000
    3  N              -2.3831   -1.8697   -0.5678      7.00      7.00       14.0031
    4  C              -1.3247   -2.1829   -1.3304      6.00      6.00       12.0000
    5  C              -0.3433   -3.2621   -0.9836      6.00      6.00       12.0000
    6  C              -1.4452   -1.8412   -2.7877      6.00      6.00       12.0000
    7  H              -3.6898   -1.6127    0.9701      1.00      1.00        1.0078
    8  H              -1.8965   -3.8052    1.5661      1.00      1.00        1.0078
    9  H              -2.3508   -2.5552    2.7450      1.00      1.00        1.0078
   10  H              -0.8497   -2.3909    1.8108      1.00      1.00        1.0078
   11  H              -3.0649   -1.3039   -1.0737      1.00      1.00        1.0078
   12  H              -0.6701   -4.2340   -1.4107      1.00      1.00        1.0078
   13  H              -0.1907   -3.4070    0.0893      1.00      1.00        1.0078
   14  H               0.6353   -3.0384   -1.4325      1.00      1.00        1.0078
   15  H              -0.4723   -1.5480   -3.2090      1.00      1.00        1.0078
   16  H              -1.7973   -2.7079   -3.3861      1.00      1.00        1.0078
   17  H              -2.1472   -1.0092   -2.9583      1.00      1.00        1.0078


 FRAGMENTS
 =========                                     Atoms in this Fragment     Cart. coord.s (Angstrom)
                                               -------------------------------------------------------
    1  C                                                 1  C           -2.6774   -1.9357    0.7433
    2  C                                                 2  C           -1.9034   -2.7128    1.7519
    3  C                                                 4  C           -1.3247   -2.1829   -1.3304
    4  C                                                 5  C           -0.3433   -3.2621   -0.9836
    5  C                                                 6  C           -1.4452   -1.8412   -2.7877
    6  N                                                 3  N           -2.3831   -1.8697   -0.5678
    7  H                                                 7  H           -3.6898   -1.6127    0.9701
    8  H                                                 8  H           -1.8965   -3.8052    1.5661
    9  H                                                 9  H           -2.3508   -2.5552    2.7450
   10  H                                                10  H           -0.8497   -2.3909    1.8108
   11  H                                                11  H           -3.0649   -1.3039   -1.0737
   12  H                                                12  H           -0.6701   -4.2340   -1.4107
   13  H                                                13  H           -0.1907   -3.4070    0.0893
   14  H                                                14  H            0.6353   -3.0384   -1.4325
   15  H                                                15  H           -0.4723   -1.5480   -3.2090
   16  H                                                16  H           -1.7973   -2.7079   -3.3861
   17  H                                                17  H           -2.1472   -1.0092   -2.9583


 Interatomic Distance Matrix (Angstrom)
 --------------------------------------

   1)     0.000
   2)     1.490   0.000
   3)     1.345   2.514   0.000
   4)     2.488   3.181   1.342   0.000
   5)     3.192   3.197   2.504   1.499   0.000
   6)     3.741   4.645   2.410   1.502   2.547   0.000
   7)     1.087   2.239   2.034   3.348   4.212   4.383   0.000
   8)     2.187   1.108   2.922   3.369   3.035   4.798   2.895   0.000
   9)     2.121   1.101   3.383   4.219   4.293   5.652   2.415   1.777   0.000
  10)     2.165   1.103   2.878   3.184   2.971   4.669   3.062   1.777   1.776   0.000
  11)     1.962   3.364   1.020   1.966   3.354   2.419   2.159   3.820   4.081   3.796
          0.000
  12)     3.735   3.720   3.039   2.155   1.111   2.868   4.654   3.248   4.787   3.716
          3.799   0.000
  13)     2.962   2.486   2.757   2.191   1.093   3.508   4.030   2.291   3.528   2.105
          3.747   1.779   0.000
  14)     4.114   4.085   3.350   2.141   1.100   2.756   5.149   3.999   5.158   3.625
          4.102   1.770   1.770   0.000
  15)     4.542   5.293   3.276   2.158   2.812   1.100   5.275   5.470   6.324   5.104
          3.368   3.239   3.797   2.570   0.000
  16)     4.292   5.139   2.998   2.174   2.862   1.111   4.874   5.073   6.158   5.292
          2.987   2.739   3.892   3.137   1.770   0.000
  17)     3.852   5.015   2.552   2.169   3.497   1.102   4.263   5.325   5.913   5.132
          2.117   3.870   4.343   3.767   1.777   1.786   0.000

 Min. Distance =    1.0202
 Max. Distance =    6.3241



 =====================================
 S Y M M E T R Y ,   E L E C T R O N S
 =====================================
  
 Symmetry: NOSYM

 Irreducible Representations, including subspecies
 -------------------------------------------------
 A


 Configuration of Valence Electrons
 ==================================
 ( determined in the SCF procedure )

 Total:   48

 Net Charge: 0 (Nuclei minus Electrons)

 Aufbau principle for MO occupations will be applied through SCF cycle no.     100
 Thereafter, the program will assign electrons to MOs that are spatially
 similar to the occupied MOs in a "reference" cycle ("KeepOrbitals").
 The reference cycle is always the PREVIOUS cycle: it will evolve with
 the SCF procedure.
 ***************************************************************************************************



                                      ****************************************
                                      *  B U I L D : (Fragments, Functions)  *
                                      ****************************************
  



 =======
 S F O s  ***  (Symmetrized Fragment Orbitals)  ***
 =======
  
 SFOs are linear combinations of (valence) Fragment Orbitals (FOs), such that the SFOs transform as the
 irreducible representations of the (molecular) symmetry group. Each SFO is therefore characterized by
 an irrep of the molecule and by a few (or only one) generating FOs.
 The SFOs constitute a symmetry-adapted basis for the Fock matrix. The MO eigenvector coefficients in
 this basis provide a direct interpretation of the MOs in terms of Frontier Orbital Theory.

 The SFOs are combined with auxiliary Core Functions (CFs) to ensure orthogonalization on the (frozen)
 Core Orbitals (COs). The Core-orthogonalized SFOs (CSFOs) constitute the true Fock basis.

 The FOs, and hence also the (C)SFOs are combinations of the elementary basis functions (BAS). The basis
 functions that participate in the description of the SFOs depend on the irrep. The indices of the
 involved functions are printed below for each irrep.
 (The complete list of primitive basis functions is printed in another section)

 Total nr. of (C)SFOs (summation over all irreps) :   277

 NOTE: a (C)SFO that is defined as a combination of more than one FO is usually NOT normalized.



                                       === A ===
 Nr. of SFOs :  277
 Cartesian basis functions that participate in this irrep (total number =   312) :
      1     2     3     4     5     6     9    12     7    10
     13     8    11    14    15    16    17    18    19    20
     21    22    23    24    25    26    27    28    29    30
     31    32    33    34    35    36    39    42    37    40
     43    38    41    44    45    46    47    48    49    50
     51    52    53    54    55    56    57    58    59    60
     61    62    63    64    65    66    69    72    67    70
     73    68    71    74    75    76    77    78    79    80
     81    82    83    84    85    86    87    88    89    90
     91    92    93    94    95    96    99   102    97   100
    103    98   101   104   105   106   107   108   109   110
    111   112   113   114   115   116   117   118   119   120
    121   122   123   124   125   126   129   132   127   130
    133   128   131   134   135   136   137   138   139   140
    141   142   143   144   145   146   147   148   149   150
    151   152   153   154   155   156   159   162   157   160
    163   158   161   164   165   166   167   168   169   170
    171   172   173   174   175   176   177   178   179   180
    181   182   183   184   185   186   187   188   189   190
    191   192   193   194   195   196   197   198   199   200
    201   202   203   204   205   206   207   208   209   210
    211   212   213   214   215   216   217   218   219   220
    221   222   223   224   225   226   227   228   229   230
    231   232   233   234   235   236   237   238   239   240
    241   242   243   244   245   246   247   248   249   250
    251   252   253   254   255   256   257   258   259   260
    261   262   263   264   265   266   267   268   269   270
    271   272   273   274   275   276   277   278   279   280
    281   282   283   284   285   286   287   288   289   290
    291   292   293   294   295   296   297   298   299   300
    301   302   303   304   305   306   307   308   309   310
    311   312

    SFO  (index         Fragment          Generating    Expansion in Fragment Orbitals
  indx  incl.CFs)   Occup   Orb.Energy   FragmentType  Coeff.   Orbital     on Fragment
 --------------------------------------------------------------------------------------
     1       1      2.000     -10.066 au  C             1.00      1 S               1
                        (    -273.921 eV)
     2       2      2.000      -0.501 au  C             1.00      2 S               1
                        (     -13.620 eV)
     3       3       --         0.373 au  C             1.00      3 S               1
                        (      10.158 eV)
     4       4       --         5.405 au  C             1.00      4 S               1
                        (     147.073 eV)
     5       5       --        49.848 au  C             1.00      5 S               1
                        (    1356.422 eV)
     6       6      0.667      -0.193 au  C             1.00      1 P:x             1
                        (      -5.239 eV)
     7       7       --         0.169 au  C             1.00      2 P:x             1
                        (       4.589 eV)
     8       8       --         2.013 au  C             1.00      3 P:x             1
                        (      54.789 eV)
     9       9      0.667      -0.193 au  C             1.00      1 P:y             1
                        (      -5.239 eV)
    10      10       --         0.169 au  C             1.00      2 P:y             1
                        (       4.589 eV)
    11      11       --         2.013 au  C             1.00      3 P:y             1
                        (      54.789 eV)
    12      12      0.667      -0.193 au  C             1.00      1 P:z             1
                        (      -5.239 eV)
    13      13       --         0.169 au  C             1.00      2 P:z             1
                        (       4.589 eV)
    14      14       --         2.013 au  C             1.00      3 P:z             1
                        (      54.789 eV)
    15      15       --         1.243 au  C             1.00      1 D:z2            1
                        (      33.824 eV)
    16      16       --         1.243 au  C             1.00      1 D:x2-y2         1
                        (      33.824 eV)
    17      17       --         1.243 au  C             1.00      1 D:xy            1
                        (      33.824 eV)
    18      18       --         1.243 au  C             1.00      1 D:xz            1
                        (      33.824 eV)
    19      19       --         1.243 au  C             1.00      1 D:yz            1
                        (      33.824 eV)
    20      20       --         4.016 au  C             1.00      1 F:z3            1
                        (     109.271 eV)
    21      21       --         4.016 au  C             1.00      1 F:z             1
                        (     109.271 eV)
    22      22       --         4.016 au  C             1.00      1 F:xyz           1
                        (     109.271 eV)
    23      23       --         4.016 au  C             1.00      1 F:z2x           1
                        (     109.271 eV)
    24      24       --         4.016 au  C             1.00      1 F:z2y           1
                        (     109.271 eV)
    25      25       --         4.016 au  C             1.00      1 F:x             1
                        (     109.271 eV)
    26      26       --         4.016 au  C             1.00      1 F:y             1
                        (     109.271 eV)
    27      27      2.000     -10.066 au  C             1.00      1 S               2
                        (    -273.921 eV)
    28      28      2.000      -0.501 au  C             1.00      2 S               2
                        (     -13.620 eV)
    29      29       --         0.373 au  C             1.00      3 S               2
                        (      10.158 eV)
    30      30       --         5.405 au  C             1.00      4 S               2
                        (     147.073 eV)
    31      31       --        49.848 au  C             1.00      5 S               2
                        (    1356.422 eV)
    32      32      0.667      -0.193 au  C             1.00      1 P:x             2
                        (      -5.239 eV)
    33      33       --         0.169 au  C             1.00      2 P:x             2
                        (       4.589 eV)
    34      34       --         2.013 au  C             1.00      3 P:x             2
                        (      54.789 eV)
    35      35      0.667      -0.193 au  C             1.00      1 P:y             2
                        (      -5.239 eV)
    36      36       --         0.169 au  C             1.00      2 P:y             2
                        (       4.589 eV)
    37      37       --         2.013 au  C             1.00      3 P:y             2
                        (      54.789 eV)
    38      38      0.667      -0.193 au  C             1.00      1 P:z             2
                        (      -5.239 eV)
    39      39       --         0.169 au  C             1.00      2 P:z             2
                        (       4.589 eV)
    40      40       --         2.013 au  C             1.00      3 P:z             2
                        (      54.789 eV)
    41      41       --         1.243 au  C             1.00      1 D:z2            2
                        (      33.824 eV)
    42      42       --         1.243 au  C             1.00      1 D:x2-y2         2
                        (      33.824 eV)
    43      43       --         1.243 au  C             1.00      1 D:xy            2
                        (      33.824 eV)
    44      44       --         1.243 au  C             1.00      1 D:xz            2
                        (      33.824 eV)
    45      45       --         1.243 au  C             1.00      1 D:yz            2
                        (      33.824 eV)
    46      46       --         4.016 au  C             1.00      1 F:z3            2
                        (     109.271 eV)
    47      47       --         4.016 au  C             1.00      1 F:z             2
                        (     109.271 eV)
    48      48       --         4.016 au  C             1.00      1 F:xyz           2
                        (     109.271 eV)
    49      49       --         4.016 au  C             1.00      1 F:z2x           2
                        (     109.271 eV)
    50      50       --         4.016 au  C             1.00      1 F:z2y           2
                        (     109.271 eV)
    51      51       --         4.016 au  C             1.00      1 F:x             2
                        (     109.271 eV)
    52      52       --         4.016 au  C             1.00      1 F:y             2
                        (     109.271 eV)
    53      53      2.000     -10.066 au  C             1.00      1 S               3
                        (    -273.921 eV)
    54      54      2.000      -0.501 au  C             1.00      2 S               3
                        (     -13.620 eV)
    55      55       --         0.373 au  C             1.00      3 S               3
                        (      10.158 eV)
    56      56       --         5.405 au  C             1.00      4 S               3
                        (     147.073 eV)
    57      57       --        49.848 au  C             1.00      5 S               3
                        (    1356.422 eV)
    58      58      0.667      -0.193 au  C             1.00      1 P:x             3
                        (      -5.239 eV)
    59      59       --         0.169 au  C             1.00      2 P:x             3
                        (       4.589 eV)
    60      60       --         2.013 au  C             1.00      3 P:x             3
                        (      54.789 eV)
    61      61      0.667      -0.193 au  C             1.00      1 P:y             3
                        (      -5.239 eV)
    62      62       --         0.169 au  C             1.00      2 P:y             3
                        (       4.589 eV)
    63      63       --         2.013 au  C             1.00      3 P:y             3
                        (      54.789 eV)
    64      64      0.667      -0.193 au  C             1.00      1 P:z             3
                        (      -5.239 eV)
    65      65       --         0.169 au  C             1.00      2 P:z             3
                        (       4.589 eV)
    66      66       --         2.013 au  C             1.00      3 P:z             3
                        (      54.789 eV)
    67      67       --         1.243 au  C             1.00      1 D:z2            3
                        (      33.824 eV)
    68      68       --         1.243 au  C             1.00      1 D:x2-y2         3
                        (      33.824 eV)
    69      69       --         1.243 au  C             1.00      1 D:xy            3
                        (      33.824 eV)
    70      70       --         1.243 au  C             1.00      1 D:xz            3
                        (      33.824 eV)
    71      71       --         1.243 au  C             1.00      1 D:yz            3
                        (      33.824 eV)
    72      72       --         4.016 au  C             1.00      1 F:z3            3
                        (     109.271 eV)
    73      73       --         4.016 au  C             1.00      1 F:z             3
                        (     109.271 eV)
    74      74       --         4.016 au  C             1.00      1 F:xyz           3
                        (     109.271 eV)
    75      75       --         4.016 au  C             1.00      1 F:z2x           3
                        (     109.271 eV)
    76      76       --         4.016 au  C             1.00      1 F:z2y           3
                        (     109.271 eV)
    77      77       --         4.016 au  C             1.00      1 F:x             3
                        (     109.271 eV)
    78      78       --         4.016 au  C             1.00      1 F:y             3
                        (     109.271 eV)
    79      79      2.000     -10.066 au  C             1.00      1 S               4
                        (    -273.921 eV)
    80      80      2.000      -0.501 au  C             1.00      2 S               4
                        (     -13.620 eV)
    81      81       --         0.373 au  C             1.00      3 S               4
                        (      10.158 eV)
    82      82       --         5.405 au  C             1.00      4 S               4
                        (     147.073 eV)
    83      83       --        49.848 au  C             1.00      5 S               4
                        (    1356.422 eV)
    84      84      0.667      -0.193 au  C             1.00      1 P:x             4
                        (      -5.239 eV)
    85      85       --         0.169 au  C             1.00      2 P:x             4
                        (       4.589 eV)
    86      86       --         2.013 au  C             1.00      3 P:x             4
                        (      54.789 eV)
    87      87      0.667      -0.193 au  C             1.00      1 P:y             4
                        (      -5.239 eV)
    88      88       --         0.169 au  C             1.00      2 P:y             4
                        (       4.589 eV)
    89      89       --         2.013 au  C             1.00      3 P:y             4
                        (      54.789 eV)
    90      90      0.667      -0.193 au  C             1.00      1 P:z             4
                        (      -5.239 eV)
    91      91       --         0.169 au  C             1.00      2 P:z             4
                        (       4.589 eV)
    92      92       --         2.013 au  C             1.00      3 P:z             4
                        (      54.789 eV)
    93      93       --         1.243 au  C             1.00      1 D:z2            4
                        (      33.824 eV)
    94      94       --         1.243 au  C             1.00      1 D:x2-y2         4
                        (      33.824 eV)
    95      95       --         1.243 au  C             1.00      1 D:xy            4
                        (      33.824 eV)
    96      96       --         1.243 au  C             1.00      1 D:xz            4
                        (      33.824 eV)
    97      97       --         1.243 au  C             1.00      1 D:yz            4
                        (      33.824 eV)
    98      98       --         4.016 au  C             1.00      1 F:z3            4
                        (     109.271 eV)
    99      99       --         4.016 au  C             1.00      1 F:z             4
                        (     109.271 eV)
   100     100       --         4.016 au  C             1.00      1 F:xyz           4
                        (     109.271 eV)
   101     101       --         4.016 au  C             1.00      1 F:z2x           4
                        (     109.271 eV)
   102     102       --         4.016 au  C             1.00      1 F:z2y           4
                        (     109.271 eV)
   103     103       --         4.016 au  C             1.00      1 F:x             4
                        (     109.271 eV)
   104     104       --         4.016 au  C             1.00      1 F:y             4
                        (     109.271 eV)
   105     105      2.000     -10.066 au  C             1.00      1 S               5
                        (    -273.921 eV)
   106     106      2.000      -0.501 au  C             1.00      2 S               5
                        (     -13.620 eV)
   107     107       --         0.373 au  C             1.00      3 S               5
                        (      10.158 eV)
   108     108       --         5.405 au  C             1.00      4 S               5
                        (     147.073 eV)
   109     109       --        49.848 au  C             1.00      5 S               5
                        (    1356.422 eV)
   110     110      0.667      -0.193 au  C             1.00      1 P:x             5
                        (      -5.239 eV)
   111     111       --         0.169 au  C             1.00      2 P:x             5
                        (       4.589 eV)
   112     112       --         2.013 au  C             1.00      3 P:x             5
                        (      54.789 eV)
   113     113      0.667      -0.193 au  C             1.00      1 P:y             5
                        (      -5.239 eV)
   114     114       --         0.169 au  C             1.00      2 P:y             5
                        (       4.589 eV)
   115     115       --         2.013 au  C             1.00      3 P:y             5
                        (      54.789 eV)
   116     116      0.667      -0.193 au  C             1.00      1 P:z             5
                        (      -5.239 eV)
   117     117       --         0.169 au  C             1.00      2 P:z             5
                        (       4.589 eV)
   118     118       --         2.013 au  C             1.00      3 P:z             5
                        (      54.789 eV)
   119     119       --         1.243 au  C             1.00      1 D:z2            5
                        (      33.824 eV)
   120     120       --         1.243 au  C             1.00      1 D:x2-y2         5
                        (      33.824 eV)
   121     121       --         1.243 au  C             1.00      1 D:xy            5
                        (      33.824 eV)
   122     122       --         1.243 au  C             1.00      1 D:xz            5
                        (      33.824 eV)
   123     123       --         1.243 au  C             1.00      1 D:yz            5
                        (      33.824 eV)
   124     124       --         4.016 au  C             1.00      1 F:z3            5
                        (     109.271 eV)
   125     125       --         4.016 au  C             1.00      1 F:z             5
                        (     109.271 eV)
   126     126       --         4.016 au  C             1.00      1 F:xyz           5
                        (     109.271 eV)
   127     127       --         4.016 au  C             1.00      1 F:z2x           5
                        (     109.271 eV)
   128     128       --         4.016 au  C             1.00      1 F:z2y           5
                        (     109.271 eV)
   129     129       --         4.016 au  C             1.00      1 F:x             5
                        (     109.271 eV)
   130     130       --         4.016 au  C             1.00      1 F:y             5
                        (     109.271 eV)
   131     131      2.000     -14.160 au  N             1.00      1 S               6
                        (    -385.319 eV)
   132     132      2.000      -0.678 au  N             1.00      2 S               6
                        (     -18.450 eV)
   133     133       --         0.517 au  N             1.00      3 S               6
                        (      14.073 eV)
   134     134       --         6.872 au  N             1.00      4 S               6
                        (     186.990 eV)
   135     135       --        63.432 au  N             1.00      5 S               6
                        (    1726.082 eV)
   136     136      1.000      -0.260 au  N             1.00      1 P:x             6
                        (      -7.062 eV)
   137     137       --         0.281 au  N             1.00      2 P:x             6
                        (       7.649 eV)
   138     138       --         3.275 au  N             1.00      3 P:x             6
                        (      89.105 eV)
   139     139      1.000      -0.260 au  N             1.00      1 P:y             6
                        (      -7.062 eV)
   140     140       --         0.281 au  N             1.00      2 P:y             6
                        (       7.649 eV)
   141     141       --         3.275 au  N             1.00      3 P:y             6
                        (      89.105 eV)
   142     142      1.000      -0.260 au  N             1.00      1 P:z             6
                        (      -7.062 eV)
   143     143       --         0.281 au  N             1.00      2 P:z             6
                        (       7.649 eV)
   144     144       --         3.275 au  N             1.00      3 P:z             6
                        (      89.105 eV)
   145     145       --         1.250 au  N             1.00      1 D:z2            6
                        (      34.005 eV)
   146     146       --         1.250 au  N             1.00      1 D:x2-y2         6
                        (      34.005 eV)
   147     147       --         1.250 au  N             1.00      1 D:xy            6
                        (      34.005 eV)
   148     148       --         1.250 au  N             1.00      1 D:xz            6
                        (      34.005 eV)
   149     149       --         1.250 au  N             1.00      1 D:yz            6
                        (      34.005 eV)
   150     150       --         4.013 au  N             1.00      1 F:z3            6
                        (     109.190 eV)
   151     151       --         4.013 au  N             1.00      1 F:z             6
                        (     109.190 eV)
   152     152       --         4.013 au  N             1.00      1 F:xyz           6
                        (     109.190 eV)
   153     153       --         4.013 au  N             1.00      1 F:z2x           6
                        (     109.190 eV)
   154     154       --         4.013 au  N             1.00      1 F:z2y           6
                        (     109.190 eV)
   155     155       --         4.013 au  N             1.00      1 F:x             6
                        (     109.190 eV)
   156     156       --         4.013 au  N             1.00      1 F:y             6
                        (     109.190 eV)
   157     157      1.000      -0.240 au  H             1.00      1 S               7
                        (      -6.532 eV)
   158     158       --         0.088 au  H             1.00      2 S               7
                        (       2.394 eV)
   159     159       --         1.502 au  H             1.00      3 S               7
                        (      40.869 eV)
   160     160       --         0.406 au  H             1.00      1 P:x             7
                        (      11.051 eV)
   161     161       --         0.406 au  H             1.00      1 P:y             7
                        (      11.051 eV)
   162     162       --         0.406 au  H             1.00      1 P:z             7
                        (      11.051 eV)
   163     163       --         2.569 au  H             1.00      1 D:z2            7
                        (      69.917 eV)
   164     164       --         2.569 au  H             1.00      1 D:x2-y2         7
                        (      69.917 eV)
   165     165       --         2.569 au  H             1.00      1 D:xy            7
                        (      69.917 eV)
   166     166       --         2.569 au  H             1.00      1 D:xz            7
                        (      69.917 eV)
   167     167       --         2.569 au  H             1.00      1 D:yz            7
                        (      69.917 eV)
   168     168      1.000      -0.240 au  H             1.00      1 S               8
                        (      -6.532 eV)
   169     169       --         0.088 au  H             1.00      2 S               8
                        (       2.394 eV)
   170     170       --         1.502 au  H             1.00      3 S               8
                        (      40.869 eV)
   171     171       --         0.406 au  H             1.00      1 P:x             8
                        (      11.051 eV)
   172     172       --         0.406 au  H             1.00      1 P:y             8
                        (      11.051 eV)
   173     173       --         0.406 au  H             1.00      1 P:z             8
                        (      11.051 eV)
   174     174       --         2.569 au  H             1.00      1 D:z2            8
                        (      69.917 eV)
   175     175       --         2.569 au  H             1.00      1 D:x2-y2         8
                        (      69.917 eV)
   176     176       --         2.569 au  H             1.00      1 D:xy            8
                        (      69.917 eV)
   177     177       --         2.569 au  H             1.00      1 D:xz            8
                        (      69.917 eV)
   178     178       --         2.569 au  H             1.00      1 D:yz            8
                        (      69.917 eV)
   179     179      1.000      -0.240 au  H             1.00      1 S               9
                        (      -6.532 eV)
   180     180       --         0.088 au  H             1.00      2 S               9
                        (       2.394 eV)
   181     181       --         1.502 au  H             1.00      3 S               9
                        (      40.869 eV)
   182     182       --         0.406 au  H             1.00      1 P:x             9
                        (      11.051 eV)
   183     183       --         0.406 au  H             1.00      1 P:y             9
                        (      11.051 eV)
   184     184       --         0.406 au  H             1.00      1 P:z             9
                        (      11.051 eV)
   185     185       --         2.569 au  H             1.00      1 D:z2            9
                        (      69.917 eV)
   186     186       --         2.569 au  H             1.00      1 D:x2-y2         9
                        (      69.917 eV)
   187     187       --         2.569 au  H             1.00      1 D:xy            9
                        (      69.917 eV)
   188     188       --         2.569 au  H             1.00      1 D:xz            9
                        (      69.917 eV)
   189     189       --         2.569 au  H             1.00      1 D:yz            9
                        (      69.917 eV)
   190     190      1.000      -0.240 au  H             1.00      1 S              10
                        (      -6.532 eV)
   191     191       --         0.088 au  H             1.00      2 S              10
                        (       2.394 eV)
   192     192       --         1.502 au  H             1.00      3 S              10
                        (      40.869 eV)
   193     193       --         0.406 au  H             1.00      1 P:x            10
                        (      11.051 eV)
   194     194       --         0.406 au  H             1.00      1 P:y            10
                        (      11.051 eV)
   195     195       --         0.406 au  H             1.00      1 P:z            10
                        (      11.051 eV)
   196     196       --         2.569 au  H             1.00      1 D:z2           10
                        (      69.917 eV)
   197     197       --         2.569 au  H             1.00      1 D:x2-y2        10
                        (      69.917 eV)
   198     198       --         2.569 au  H             1.00      1 D:xy           10
                        (      69.917 eV)
   199     199       --         2.569 au  H             1.00      1 D:xz           10
                        (      69.917 eV)
   200     200       --         2.569 au  H             1.00      1 D:yz           10
                        (      69.917 eV)
   201     201      1.000      -0.240 au  H             1.00      1 S              11
                        (      -6.532 eV)
   202     202       --         0.088 au  H             1.00      2 S              11
                        (       2.394 eV)
   203     203       --         1.502 au  H             1.00      3 S              11
                        (      40.869 eV)
   204     204       --         0.406 au  H             1.00      1 P:x            11
                        (      11.051 eV)
   205     205       --         0.406 au  H             1.00      1 P:y            11
                        (      11.051 eV)
   206     206       --         0.406 au  H             1.00      1 P:z            11
                        (      11.051 eV)
   207     207       --         2.569 au  H             1.00      1 D:z2           11
                        (      69.917 eV)
   208     208       --         2.569 au  H             1.00      1 D:x2-y2        11
                        (      69.917 eV)
   209     209       --         2.569 au  H             1.00      1 D:xy           11
                        (      69.917 eV)
   210     210       --         2.569 au  H             1.00      1 D:xz           11
                        (      69.917 eV)
   211     211       --         2.569 au  H             1.00      1 D:yz           11
                        (      69.917 eV)
   212     212      1.000      -0.240 au  H             1.00      1 S              12
                        (      -6.532 eV)
   213     213       --         0.088 au  H             1.00      2 S              12
                        (       2.394 eV)
   214     214       --         1.502 au  H             1.00      3 S              12
                        (      40.869 eV)
   215     215       --         0.406 au  H             1.00      1 P:x            12
                        (      11.051 eV)
   216     216       --         0.406 au  H             1.00      1 P:y            12
                        (      11.051 eV)
   217     217       --         0.406 au  H             1.00      1 P:z            12
                        (      11.051 eV)
   218     218       --         2.569 au  H             1.00      1 D:z2           12
                        (      69.917 eV)
   219     219       --         2.569 au  H             1.00      1 D:x2-y2        12
                        (      69.917 eV)
   220     220       --         2.569 au  H             1.00      1 D:xy           12
                        (      69.917 eV)
   221     221       --         2.569 au  H             1.00      1 D:xz           12
                        (      69.917 eV)
   222     222       --         2.569 au  H             1.00      1 D:yz           12
                        (      69.917 eV)
   223     223      1.000      -0.240 au  H             1.00      1 S              13
                        (      -6.532 eV)
   224     224       --         0.088 au  H             1.00      2 S              13
                        (       2.394 eV)
   225     225       --         1.502 au  H             1.00      3 S              13
                        (      40.869 eV)
   226     226       --         0.406 au  H             1.00      1 P:x            13
                        (      11.051 eV)
   227     227       --         0.406 au  H             1.00      1 P:y            13
                        (      11.051 eV)
   228     228       --         0.406 au  H             1.00      1 P:z            13
                        (      11.051 eV)
   229     229       --         2.569 au  H             1.00      1 D:z2           13
                        (      69.917 eV)
   230     230       --         2.569 au  H             1.00      1 D:x2-y2        13
                        (      69.917 eV)
   231     231       --         2.569 au  H             1.00      1 D:xy           13
                        (      69.917 eV)
   232     232       --         2.569 au  H             1.00      1 D:xz           13
                        (      69.917 eV)
   233     233       --         2.569 au  H             1.00      1 D:yz           13
                        (      69.917 eV)
   234     234      1.000      -0.240 au  H             1.00      1 S              14
                        (      -6.532 eV)
   235     235       --         0.088 au  H             1.00      2 S              14
                        (       2.394 eV)
   236     236       --         1.502 au  H             1.00      3 S              14
                        (      40.869 eV)
   237     237       --         0.406 au  H             1.00      1 P:x            14
                        (      11.051 eV)
   238     238       --         0.406 au  H             1.00      1 P:y            14
                        (      11.051 eV)
   239     239       --         0.406 au  H             1.00      1 P:z            14
                        (      11.051 eV)
   240     240       --         2.569 au  H             1.00      1 D:z2           14
                        (      69.917 eV)
   241     241       --         2.569 au  H             1.00      1 D:x2-y2        14
                        (      69.917 eV)
   242     242       --         2.569 au  H             1.00      1 D:xy           14
                        (      69.917 eV)
   243     243       --         2.569 au  H             1.00      1 D:xz           14
                        (      69.917 eV)
   244     244       --         2.569 au  H             1.00      1 D:yz           14
                        (      69.917 eV)
   245     245      1.000      -0.240 au  H             1.00      1 S              15
                        (      -6.532 eV)
   246     246       --         0.088 au  H             1.00      2 S              15
                        (       2.394 eV)
   247     247       --         1.502 au  H             1.00      3 S              15
                        (      40.869 eV)
   248     248       --         0.406 au  H             1.00      1 P:x            15
                        (      11.051 eV)
   249     249       --         0.406 au  H             1.00      1 P:y            15
                        (      11.051 eV)
   250     250       --         0.406 au  H             1.00      1 P:z            15
                        (      11.051 eV)
   251     251       --         2.569 au  H             1.00      1 D:z2           15
                        (      69.917 eV)
   252     252       --         2.569 au  H             1.00      1 D:x2-y2        15
                        (      69.917 eV)
   253     253       --         2.569 au  H             1.00      1 D:xy           15
                        (      69.917 eV)
   254     254       --         2.569 au  H             1.00      1 D:xz           15
                        (      69.917 eV)
   255     255       --         2.569 au  H             1.00      1 D:yz           15
                        (      69.917 eV)
   256     256      1.000      -0.240 au  H             1.00      1 S              16
                        (      -6.532 eV)
   257     257       --         0.088 au  H             1.00      2 S              16
                        (       2.394 eV)
   258     258       --         1.502 au  H             1.00      3 S              16
                        (      40.869 eV)
   259     259       --         0.406 au  H             1.00      1 P:x            16
                        (      11.051 eV)
   260     260       --         0.406 au  H             1.00      1 P:y            16
                        (      11.051 eV)
   261     261       --         0.406 au  H             1.00      1 P:z            16
                        (      11.051 eV)
   262     262       --         2.569 au  H             1.00      1 D:z2           16
                        (      69.917 eV)
   263     263       --         2.569 au  H             1.00      1 D:x2-y2        16
                        (      69.917 eV)
   264     264       --         2.569 au  H             1.00      1 D:xy           16
                        (      69.917 eV)
   265     265       --         2.569 au  H             1.00      1 D:xz           16
                        (      69.917 eV)
   266     266       --         2.569 au  H             1.00      1 D:yz           16
                        (      69.917 eV)
   267     267      1.000      -0.240 au  H             1.00      1 S              17
                        (      -6.532 eV)
   268     268       --         0.088 au  H             1.00      2 S              17
                        (       2.394 eV)
   269     269       --         1.502 au  H             1.00      3 S              17
                        (      40.869 eV)
   270     270       --         0.406 au  H             1.00      1 P:x            17
                        (      11.051 eV)
   271     271       --         0.406 au  H             1.00      1 P:y            17
                        (      11.051 eV)
   272     272       --         0.406 au  H             1.00      1 P:z            17
                        (      11.051 eV)
   273     273       --         2.569 au  H             1.00      1 D:z2           17
                        (      69.917 eV)
   274     274       --         2.569 au  H             1.00      1 D:x2-y2        17
                        (      69.917 eV)
   275     275       --         2.569 au  H             1.00      1 D:xy           17
                        (      69.917 eV)
   276     276       --         2.569 au  H             1.00      1 D:xz           17
                        (      69.917 eV)
   277     277       --         2.569 au  H             1.00      1 D:yz           17
                        (      69.917 eV)



 ================================
 (Slater-type)  F U N C T I O N S  ***  (Basis and Fit)  ***
 ================================
  

 Atom Type    1  (C)
 ==============

 Valence Basis Sets:  10
 -----------------------
   1 S    7.680000
   1 S    5.000000
   2 S    1.280000
   2 S    2.100000
   2 S    4.600000
   2 P    0.820000
   2 P    1.480000
   2 P    2.940000
   3 D    2.200000
   4 F    3.300000

 Atom Type    2  (N)
 ==============

 Valence Basis Sets:  10
 -----------------------
   1 S    8.740000
   1 S    5.900000
   2 S    5.150000
   2 S    2.500000
   2 S    1.500000
   2 P    3.680000
   2 P    1.880000
   2 P    1.000000
   3 D    2.200000
   4 F    3.300000

 Atom Type    3  (H)
 ==============

 Valence Basis Sets:   5
 -----------------------
   1 S    0.690000
   1 S    0.920000
   1 S    1.580000
   2 P    1.250000
   3 D    2.500000


 BAS: List of all Elementary Cartesian Basis Functions
 =====================================================

 The numbering in the list below (to the right of the function characteristics) is referred
 to in print-outs of MO eigenvectors and Mulliken populations in the BAS representation
 (as contrasted to the SFO representation).

 Notes:
 1. The functions are characterized by a polynomial prefactor (powers of x,y,z and r) and
    an exponential decay factor alpha.
 2. Since the basis sets are specific for an atom TYPE, the individual functions occur on
    all atoms of that type.
 3. The word 'Core' in the left margin signals that it is a Core Function (CF) : not a
    degree of freedom in the valence set, but only used to ensure orthogonalization of
    the other valence basis functions on the frozen Core Orbitals.


 (power of) X  Y  Z  R     Alpha  on Atom
            ==========     =====     ==========

 C                                    1    2    3    4    5
                                  ---------------------------------------------------------------------------
            0  0  0  0     7.680      1   31   61   91  121
            0  0  0  0     5.000      2   32   62   92  122
            0  0  0  1     1.280      3   33   63   93  123
            0  0  0  1     2.100      4   34   64   94  124
            0  0  0  1     4.600      5   35   65   95  125
            1  0  0  0     0.820      6   36   66   96  126
            0  1  0  0     0.820      7   37   67   97  127
            0  0  1  0     0.820      8   38   68   98  128
            1  0  0  0     1.480      9   39   69   99  129
            0  1  0  0     1.480     10   40   70  100  130
            0  0  1  0     1.480     11   41   71  101  131
            1  0  0  0     2.940     12   42   72  102  132
            0  1  0  0     2.940     13   43   73  103  133
            0  0  1  0     2.940     14   44   74  104  134
            2  0  0  0     2.200     15   45   75  105  135
            1  1  0  0     2.200     16   46   76  106  136
            1  0  1  0     2.200     17   47   77  107  137
            0  2  0  0     2.200     18   48   78  108  138
            0  1  1  0     2.200     19   49   79  109  139
            0  0  2  0     2.200     20   50   80  110  140
            3  0  0  0     3.300     21   51   81  111  141
            2  1  0  0     3.300     22   52   82  112  142
            2  0  1  0     3.300     23   53   83  113  143
            1  2  0  0     3.300     24   54   84  114  144
            1  1  1  0     3.300     25   55   85  115  145
            1  0  2  0     3.300     26   56   86  116  146
            0  3  0  0     3.300     27   57   87  117  147
            0  2  1  0     3.300     28   58   88  118  148
            0  1  2  0     3.300     29   59   89  119  149
            0  0  3  0     3.300     30   60   90  120  150

 N                                    6
                                  ---------------------------------------------------------------------------
            0  0  0  0     8.740    151
            0  0  0  0     5.900    152
            0  0  0  1     5.150    153
            0  0  0  1     2.500    154
            0  0  0  1     1.500    155
            1  0  0  0     3.680    156
            0  1  0  0     3.680    157
            0  0  1  0     3.680    158
            1  0  0  0     1.880    159
            0  1  0  0     1.880    160
            0  0  1  0     1.880    161
            1  0  0  0     1.000    162
            0  1  0  0     1.000    163
            0  0  1  0     1.000    164
            2  0  0  0     2.200    165
            1  1  0  0     2.200    166
            1  0  1  0     2.200    167
            0  2  0  0     2.200    168
            0  1  1  0     2.200    169
            0  0  2  0     2.200    170
            3  0  0  0     3.300    171
            2  1  0  0     3.300    172
            2  0  1  0     3.300    173
            1  2  0  0     3.300    174
            1  1  1  0     3.300    175
            1  0  2  0     3.300    176
            0  3  0  0     3.300    177
            0  2  1  0     3.300    178
            0  1  2  0     3.300    179
            0  0  3  0     3.300    180

 H                                    7    8    9   10   11   12   13   14   15   16   17
                                  ---------------------------------------------------------------------------
            0  0  0  0     0.690    181  193  205  217  229  241  253  265  277  289  301
            0  0  0  0     0.920    182  194  206  218  230  242  254  266  278  290  302
            0  0  0  0     1.580    183  195  207  219  231  243  255  267  279  291  303
            1  0  0  0     1.250    184  196  208  220  232  244  256  268  280  292  304
            0  1  0  0     1.250    185  197  209  221  233  245  257  269  281  293  305
            0  0  1  0     1.250    186  198  210  222  234  246  258  270  282  294  306
            2  0  0  0     2.500    187  199  211  223  235  247  259  271  283  295  307
            1  1  0  0     2.500    188  200  212  224  236  248  260  272  284  296  308
            1  0  1  0     2.500    189  201  213  225  237  249  261  273  285  297  309
            0  2  0  0     2.500    190  202  214  226  238  250  262  274  286  298  310
            0  1  1  0     2.500    191  203  215  227  239  251  263  275  287  299  311
            0  0  2  0     2.500    192  204  216  228  240  252  264  276  288  300  312

 Total number of charge fitting functions (nprimf)      1054
 Total number of Cartesian basis functions (naos)        312
 Total number of Cartesian core functions  (ncos)          0

 ***************************************************************************************************



                                              ***********************
                                              *  T E C H N I C A L  *
                                              ***********************
  



 =============================================================
 P A R A L L E L I Z A T I O N  and  V E C T O R I Z A T I O N
 =============================================================
  
 Nr of parallel processes:                                1
 Maximum vector length in NumInt loops:                 128



 =====================
 S C F   U P D A T E S
 =====================
  
 Max. nr. of cycles:                               200
 Convergence criterion:                              0.0000010000
   secondary criterion:                              0.0010000000

 Mix parameter (when DIIS does not apply):           0.2000000000
 Mixed ADIIS+SDIIS will be used                  
    Max number of expansion vectors:                10
    Pure ADIIS when Max([F,P]) is above              0.1000000000
    Pure SDIIS when Max([F,P]) is below              0.0010000000
 Automatic ElectronSmearing (in case of problematic SCF convergence) disabled



 =================
 P R E C I S I O N  ***  (General: NumInt, NeglectFunctionTails, ...)  ***
 =================
  

 NumInt:           Target precision:                 4.0000000000
 -------           Initial precision:                4.0000000000
                   Min. precision (optimization):    4.0000000000

 Neglect Functions:          Basis functions:        0.1000000000E-05
 ------------------          Fit functions:          0.1000000000E-05



 ===========================
 L I N E A R   S C A L I N G
 ===========================
  

 Cut-off radii density fit:                        0.1000000000E-07
 Overlap cut-off criterion AO matrix elements:     0.1000000000E-05
 Cut-offs for Coulomb potential and fitted density:0.1000000000E-07
 Cut-off criterion for Coulomb multipole terms:    0.1000000000E-07
 Progressive Convergence parameter:                 0.000000000    
 ***************************************************************************************************



                                            ***************************
                                            *  C O M P U T A T I O N  *
                                            ***************************
  

 Number of elements of the density matrix on this node (used, total):     48828     48828



 ===========================================
 Numerical Integration : Fuzzy Cells (Becke)
 ===========================================
  
 Becke grid quality: NORMAL         
  
 Lebedev angular grid order:             min:  11 max:  23
 Nr. of radial points:                   min:  46 max:  52

 Total nr. of points:     107524
 Nr. of blocks:              841
 Block length:               128
 Nr. of dummy points:        124


 Test of Precision of the Numerical Integration Grid
 ===================================================

 Integral of the Total Core Density:                   0.00000000000000



 ========================
 Density Fitting (zlmFit)
 ========================
  
 ZlmFit Fit Quality: NORMAL         
  
 Max L-expansion:                        min:   6 max:   7
 Nr. of radial interpolation points:     min:  39 max:  48



 =====
 S C F  ***  ScaSCF  ***
 =====
  
 Initial density matrix is calculated as sum of fragments

 CYCLE    1
 SCF Error: norm([F,P])=      6.368043483731, max([F,P])=      1.312260003615
 orbitals (Q,E):
 ---------------
 A :15...34          ( 2.00    -0.5666)  ( 2.00    -0.5490)  ( 2.00    -0.5438)  ( 2.00    -0.5397)
                     ( 2.00    -0.5264)  ( 2.00    -0.5219)  ( 2.00    -0.5070)  ( 2.00    -0.4955)
                     ( 2.00    -0.4743)  ( 2.00    -0.2841)  ( 0.00    -0.1849)  ( 0.00    -0.0804)
                     ( 0.00    -0.0585)  ( 0.00    -0.0509)  ( 0.00    -0.0339)  ( 0.00    -0.0226)
                     ( 0.00    -0.0177)  ( 0.00    -0.0107)  ( 0.00    -0.0055)  ( 0.00     0.0038)

 CYCLE    2
   MIX coefficients:  0.8000  0.2000
 SCF Error: norm([F,P])=      1.224491069386, max([F,P])=      0.218039745989
 orbitals (Q,E):
 ---------------
 A :15...25          ( 2.00    -0.4970)  ( 2.00    -0.4728)  ( 2.00    -0.4698)  ( 2.00    -0.4671)
                     ( 2.00    -0.4538)  ( 2.00    -0.4507)  ( 2.00    -0.4305)  ( 2.00    -0.4204)
                     ( 2.00    -0.4063)  ( 2.00    -0.2167)  ( 0.00    -0.1190)

 CYCLE    3
  SDIIS (wt  0.000): -1.0177  2.0177
 A-DIIS (wt  1.000):  0.0000  1.0000
  DIIS coefficients:  0.0000  1.0000
 SCF Error: norm([F,P])=      0.651569766026, max([F,P])=      0.106846807997
 orbitals (Q,E):
 ---------------
 A :15...25          ( 2.00    -0.3045)  ( 2.00    -0.2745)  ( 2.00    -0.2678)  ( 2.00    -0.2583)
                     ( 2.00    -0.2508)  ( 2.00    -0.2428)  ( 2.00    -0.2239)  ( 2.00    -0.2172)
                     ( 2.00    -0.1953)  ( 2.00    -0.0358)  ( 0.00     0.0057)

 CYCLE    4
  SDIIS (wt  0.000): -0.0172  0.6386  0.3786
 A-DIIS (wt  1.000):  0.0000  0.6820  0.3180
  DIIS coefficients:  0.0000  0.6820  0.3180
 SCF Error: norm([F,P])=      1.029384417567, max([F,P])=      0.187153886274
 orbitals (Q,E):
 ---------------
 A :15...25          ( 2.00    -0.3801)  ( 2.00    -0.3447)  ( 2.00    -0.3399)  ( 2.00    -0.3359)
                     ( 2.00    -0.3229)  ( 2.00    -0.3192)  ( 2.00    -0.3023)  ( 2.00    -0.2957)
                     ( 2.00    -0.2831)  ( 2.00    -0.1105)  ( 0.00    -0.0242)

 CYCLE    5
  SDIIS (wt  0.684):  0.1311  0.0850  0.1107  0.6733
 A-DIIS (wt  0.316):  0.0000  0.0000  0.0000  1.0000
  DIIS coefficients:  0.0896  0.0581  0.0757  0.7766
 SCF Error: norm([F,P])=      0.171260641128, max([F,P])=      0.032305806703
 orbitals (Q,E):
 ---------------
 A :15...25          ( 2.00    -0.3936)  ( 2.00    -0.3680)  ( 2.00    -0.3618)  ( 2.00    -0.3573)
                     ( 2.00    -0.3447)  ( 2.00    -0.3381)  ( 2.00    -0.3211)  ( 2.00    -0.3123)
                     ( 2.00    -0.3029)  ( 2.00    -0.1240)  ( 0.00    -0.0327)

 CYCLE    6
  SDIIS (wt  0.000):  0.0240  0.1126  0.0266  0.6045  0.2323
 A-DIIS (wt  1.000):  0.0000  0.0000  0.0000  0.5749  0.4251
  DIIS coefficients:  0.0000  0.0000  0.0000  0.5749  0.4251
 SCF Error: norm([F,P])=      0.193800144164, max([F,P])=      0.048237007643
 orbitals (Q,E):
 ---------------
 A :15...25          ( 2.00    -0.4018)  ( 2.00    -0.3654)  ( 2.00    -0.3629)  ( 2.00    -0.3595)
                     ( 2.00    -0.3477)  ( 2.00    -0.3441)  ( 2.00    -0.3236)  ( 2.00    -0.3126)
                     ( 2.00    -0.3059)  ( 2.00    -0.1256)  ( 0.00    -0.0346)

 CYCLE    7
  SDIIS (wt  0.000): -0.0235  0.0837  0.0176  0.3426  0.3648  0.2149
 A-DIIS (wt  1.000):  0.0000  0.0000  0.0000  0.3196  0.4239  0.2565
  DIIS coefficients:  0.0000  0.0000  0.0000  0.3196  0.4239  0.2565
 SCF Error: norm([F,P])=      0.222075805116, max([F,P])=      0.057824491697
 orbitals (Q,E):
 ---------------
 A :15...25          ( 2.00    -0.3906)  ( 2.00    -0.3586)  ( 2.00    -0.3542)  ( 2.00    -0.3502)
                     ( 2.00    -0.3377)  ( 2.00    -0.3340)  ( 2.00    -0.3151)  ( 2.00    -0.3070)
                     ( 2.00    -0.2981)  ( 2.00    -0.1193)  ( 0.00    -0.0305)

 CYCLE    8
  SDIIS (wt  0.970): -0.0021  0.0089  0.0027  0.1305  0.2112  0.1050  0.5437
 A-DIIS (wt  0.030):  0.0000  0.0000  0.0000  0.0000  0.0000  0.0000  1.0000
  DIIS coefficients: -0.0021  0.0086  0.0027  0.1266  0.2049  0.1019  0.5573
 SCF Error: norm([F,P])=      0.021446826887, max([F,P])=      0.003954634695
 orbitals (Q,E):
 ---------------
 A :15...25          ( 2.00    -0.3908)  ( 2.00    -0.3594)  ( 2.00    -0.3548)  ( 2.00    -0.3508)
                     ( 2.00    -0.3384)  ( 2.00    -0.3344)  ( 2.00    -0.3154)  ( 2.00    -0.3072)
                     ( 2.00    -0.2985)  ( 2.00    -0.1195)  ( 0.00    -0.0305)

 CYCLE    9
  SDIIS (wt  1.000):  0.0023 -0.0025 -0.0003  0.0379  0.0593  0.0245  0.2717  0.6071
  DIIS coefficients:  0.0023 -0.0025 -0.0003  0.0379  0.0593  0.0245  0.2717  0.6071
 SCF Error: norm([F,P])=      0.003562901726, max([F,P])=      0.000902250961
 orbitals (Q,E):
 ---------------
 A :15...25          ( 2.00    -0.3909)  ( 2.00    -0.3593)  ( 2.00    -0.3547)  ( 2.00    -0.3507)
                     ( 2.00    -0.3383)  ( 2.00    -0.3344)  ( 2.00    -0.3154)  ( 2.00    -0.3074)
                     ( 2.00    -0.2984)  ( 2.00    -0.1194)  ( 0.00    -0.0306)

 CYCLE   10
  SDIIS (wt  1.000):  0.0011 -0.0015 -0.0007  0.0077  0.0086  0.0008  0.0907  0.4209  0.4724
  DIIS coefficients:  0.0011 -0.0015 -0.0007  0.0077  0.0086  0.0008  0.0907  0.4209  0.4724
 SCF Error: norm([F,P])=      0.001970187224, max([F,P])=      0.000497409739
 orbitals (Q,E):
 ---------------
 A :15...25          ( 2.00    -0.3908)  ( 2.00    -0.3593)  ( 2.00    -0.3547)  ( 2.00    -0.3507)
                     ( 2.00    -0.3383)  ( 2.00    -0.3344)  ( 2.00    -0.3154)  ( 2.00    -0.3073)
                     ( 2.00    -0.2984)  ( 2.00    -0.1195)  ( 0.00    -0.0306)

 CYCLE   11
  SDIIS (wt  1.000):  0.0003 -0.0005 -0.0003  0.0019  0.0012 -0.0006  0.0264  0.1654  0.2152  0.5908
  DIIS coefficients:  0.0003 -0.0005 -0.0003  0.0019  0.0012 -0.0006  0.0264  0.1654  0.2152  0.5908
 SCF Error: norm([F,P])=      0.000255908355, max([F,P])=      0.000055460494
 orbitals (Q,E):
 ---------------
 A :15...25          ( 2.00    -0.3908)  ( 2.00    -0.3593)  ( 2.00    -0.3547)  ( 2.00    -0.3507)
                     ( 2.00    -0.3383)  ( 2.00    -0.3344)  ( 2.00    -0.3154)  ( 2.00    -0.3073)
                     ( 2.00    -0.2984)  ( 2.00    -0.1195)  ( 0.00    -0.0306)

 CYCLE   12
  SDIIS (wt  1.000):  0.0000 -0.0000  0.0002  0.0000 -0.0001  0.0028  0.0307  0.0462  0.2357  0.6845
  DIIS coefficients:  0.0000 -0.0000  0.0002  0.0000 -0.0001  0.0028  0.0307  0.0462  0.2357  0.6845
 SCF Error: norm([F,P])=      0.000061068183, max([F,P])=      0.000016510496
 orbitals (Q,E):
 ---------------
 A :15...25          ( 2.00    -0.3908)  ( 2.00    -0.3593)  ( 2.00    -0.3547)  ( 2.00    -0.3507)
                     ( 2.00    -0.3383)  ( 2.00    -0.3344)  ( 2.00    -0.3154)  ( 2.00    -0.3073)
                     ( 2.00    -0.2984)  ( 2.00    -0.1195)  ( 0.00    -0.0306)

 CYCLE   13
  SDIIS (wt  1.000): -0.0000 -0.0000 -0.0000 -0.0000  0.0004  0.0083  0.0138  0.0922  0.3975  0.4878
  DIIS coefficients: -0.0000 -0.0000 -0.0000 -0.0000  0.0004  0.0083  0.0138  0.0922  0.3975  0.4878
 SCF Error: norm([F,P])=      0.000030496338, max([F,P])=      0.000007195695
 orbitals (Q,E):
 ---------------
 A :15...25          ( 2.00    -0.3908)  ( 2.00    -0.3593)  ( 2.00    -0.3547)  ( 2.00    -0.3507)
                     ( 2.00    -0.3383)  ( 2.00    -0.3344)  ( 2.00    -0.3154)  ( 2.00    -0.3073)
                     ( 2.00    -0.2984)  ( 2.00    -0.1195)  ( 0.00    -0.0306)

 CYCLE   14
  SDIIS (wt  1.000): -0.0000 -0.0000 -0.0000  0.0000  0.0014  0.0027  0.0199  0.0984  0.1587  0.7188
  DIIS coefficients: -0.0000 -0.0000 -0.0000  0.0000  0.0014  0.0027  0.0199  0.0984  0.1587  0.7188
 SCF Error: norm([F,P])=      0.000002998547, max([F,P])=      0.000000657575
 orbitals (Q,E):
 ---------------
 A :15...25          ( 2.00    -0.3908)  ( 2.00    -0.3593)  ( 2.00    -0.3547)  ( 2.00    -0.3507)
                     ( 2.00    -0.3383)  ( 2.00    -0.3344)  ( 2.00    -0.3154)  ( 2.00    -0.3073)
                     ( 2.00    -0.2984)  ( 2.00    -0.1195)  ( 0.00    -0.0306)

 SCF CONVERGED

 CYCLE   15
 ***************************************************************************************************



                                                *******************
                                                *  R E S U L T S  *
                                                *******************
  
 *** Using FIT density in Focky
  SDIIS (wt  1.000): -0.0000 -0.0000 -0.0000  0.0001  0.0004  0.0033  0.0197  0.0376  0.2569  0.6821
  DIIS coefficients: -0.0000 -0.0000 -0.0000  0.0001  0.0004  0.0033  0.0197  0.0376  0.2569  0.6821
 SCF Error: norm([F,P])=      0.000000671225, max([F,P])=      0.000000189414

 Scaled ZORA Orbital Energies, per Irrep and Spin:
 =================================================
                        Occup              E (au)              E (eV)       Diff (eV) with prev. cycle
                        -----      --------------------        ------       --------------------------
 A
              15        2.000     -0.39083112284657E+00       -10.635               4.45E-08
              16        2.000     -0.35932367084192E+00        -9.778               1.37E-06
              17        2.000     -0.35468915401093E+00        -9.652               5.42E-07
              18        2.000     -0.35073370264589E+00        -9.544               4.25E-07
              19        2.000     -0.33830629919960E+00        -9.206               5.72E-07
              20        2.000     -0.33436506306565E+00        -9.099              -4.75E-08
              21        2.000     -0.31538900272548E+00        -8.582               3.22E-07
              22        2.000     -0.30730951760467E+00        -8.362              -3.14E-09
              23        2.000     -0.29844769185256E+00        -8.121               5.70E-07
              24        2.000     -0.11950855028528E+00        -3.252              -3.72E-07
              25        0.000     -0.30611511454888E-01        -0.833
              26        0.000     -0.14664623157873E-01        -0.399
              27        0.000      0.78488673928380E-02         0.214
              28        0.000      0.14080456342246E-01         0.383
              29        0.000      0.40856933340433E-01         1.112
              30        0.000      0.43333559992732E-01         1.179
              31        0.000      0.46313506255223E-01         1.260
              32        0.000      0.65502406659370E-01         1.782
              33        0.000      0.76142357475405E-01         2.072
              34        0.000      0.81543383510990E-01         2.219
  
 HOMO :       24 A                -0.11950855028528E+00
 LUMO :       25 A                -0.30611511454888E-01
  


 All Electron Calculation, thus no Orbital Energies of the Core Orbitals are calculated


 Fit test: (difference of exact and fit density, squared integrated, result summed over spins)
         Sum-of-Fragments:                             0.00000000040418
         Orthogonalized Fragments:                     0.00006305644372
         SCF:                                          0.00018478190887



 ==========================
 Electron Density at Nuclei
 ==========================
  
 The electron density is calculated at points on a small sphere around the center of a nucleus.
 The printed electron density is the average electron density on these points.
 The radius of the sphere is the printed approximate finite nuclear radius.
 Note: ZORA-4 density is used, which includes small component density

         Atom        Nuclear Radius (Angstrom)             Electron Density (a.u.)
         ----        -------------------------             -----------------------
     1)   C                 0.0000320678                              126.93598
     2)   C                 0.0000320678                              126.96341
     3)   N                 0.0000333706                              205.93791
     4)   C                 0.0000320678                              126.92925
     5)   C                 0.0000320678                              126.97242
     6)   C                 0.0000320678                              126.98855
     7)   H                 0.0000181514                                0.50885
     8)   H                 0.0000181514                                0.50488
     9)   H                 0.0000181514                                0.50541
    10)   H                 0.0000181514                                0.50810
    11)   H                 0.0000181514                                0.50079
    12)   H                 0.0000181514                                0.50322
    13)   H                 0.0000181514                                0.51134
    14)   H                 0.0000181514                                0.50886
    15)   H                 0.0000181514                                0.50851
    16)   H                 0.0000181514                                0.50457
    17)   H                 0.0000181514                                0.50745



 =======================================
 M U L L I K E N   P O P U L A T I O N S
 =======================================
  
 The survey below gives for each atom:
 a) the total charge (Z minus electrons)
 b) the net spin polarization (nr of electrons spin-A minus spin-B)
 c) for each spin the atomic electron valence density (integrated) per L-value.

 Atom              Charge    Spin density          S         P         D         F
 ----              ------    ------------       ------    ------    ------    ------
 1 C               0.1930                       3.0374    2.6938    0.0702    0.0057
 2 C               0.6042                       2.8385    2.5097    0.0452    0.0024
 3 N               0.0651                       3.3266    3.5113    0.0910    0.0060
 4 C               0.0426                       3.1401    2.7203    0.0902    0.0068
 5 C               0.6401                       2.8340    2.4797    0.0438    0.0024
 6 C               0.6285                       2.8334    2.4907    0.0450    0.0024
 7 H              -0.2124                       1.1218    0.0848    0.0058    0.0000
 8 H              -0.1883                       1.0982    0.0841    0.0060    0.0000
 9 H              -0.2436                       1.1567    0.0810    0.0059    0.0000
 10 H             -0.1878                       1.0965    0.0852    0.0061    0.0000
 11 H             -0.0611                       0.9353    0.1150    0.0109    0.0000
 12 H             -0.2280                       1.1386    0.0835    0.0059    0.0000
 13 H             -0.1961                       1.0962    0.0936    0.0062    0.0000
 14 H             -0.2051                       1.1161    0.0829    0.0060    0.0000
 15 H             -0.1878                       1.0994    0.0824    0.0060    0.0000
 16 H             -0.2160                       1.1288    0.0814    0.0058    0.0000
 17 H             -0.2473                       1.1577    0.0835    0.0061    0.0000

 Populations of individual BAS functions
 ----------------------------------------
 1 C            0.5052  1.4829  0.2465  0.8336 -0.0307 -0.1161  0.2033 -0.1163  0.7780  0.7154
                0.6599  0.1950  0.1979  0.1767  0.0100  0.0047  0.0169 -0.0071  0.0166  0.0291
               -0.0006  0.0009 -0.0014 -0.0019  0.0005  0.0039 -0.0046 -0.0034  0.0055  0.0068
 2 C            0.5070  1.4821 -0.0220  0.9119 -0.0406 -0.1160 -0.1281 -0.1568  0.7719  0.7694
                0.7886  0.1962  0.1930  0.1914  0.0077  0.0054  0.0082  0.0098  0.0063  0.0079
                0.0004 -0.0004 -0.0000 -0.0008  0.0003  0.0010  0.0008 -0.0004  0.0002  0.0011
 4 C            0.5052  1.4831  0.3658  0.8148 -0.0289  0.0011  0.1025 -0.0987  0.6860  0.7340
                0.7433  0.1826  0.1900  0.1795  0.0148  0.0144  0.0226  0.0012  0.0160  0.0213
                0.0014  0.0026  0.0011 -0.0012  0.0011  0.0022 -0.0031 -0.0025  0.0021  0.0031
 5 C            0.5071  1.4819 -0.0262  0.9116 -0.0405 -0.1311 -0.1401 -0.1755  0.7740  0.7645
                0.8081  0.1924  0.1884  0.1990  0.0086  0.0089  0.0058  0.0102  0.0059  0.0045
                0.0006  0.0010  0.0002  0.0012  0.0003 -0.0010  0.0007 -0.0001 -0.0011  0.0005
 6 C            0.5071  1.4819 -0.0290  0.9138 -0.0404 -0.1384 -0.1640 -0.1118  0.7852  0.7883
                0.7532  0.1960  0.1928  0.1895  0.0020  0.0073  0.0089  0.0007  0.0132  0.0128
               -0.0008  0.0002 -0.0018  0.0004  0.0002  0.0010 -0.0015 -0.0013  0.0019  0.0039
 3 N            0.5512  1.4298 -0.0344  0.9926  0.3873  0.1807  0.1874  0.1839  0.8835  0.8534
                0.9066  0.0627  0.2789 -0.0257  0.0142  0.0125  0.0220 -0.0138  0.0272  0.0288
                0.0009  0.0031 -0.0003 -0.0036  0.0008  0.0048 -0.0080 -0.0055  0.0065  0.0072
 7 H            0.1852  0.6158  0.3207  0.0343  0.0340  0.0164  0.0118  0.0017  0.0015 -0.0048
                0.0004 -0.0047
 8 H            0.1567  0.6266  0.3148  0.0234  0.0347  0.0260 -0.0064  0.0019  0.0002  0.0138
                0.0020 -0.0054
 9 H            0.2197  0.6327  0.3042  0.0254  0.0237  0.0319 -0.0026  0.0004  0.0016 -0.0059
                0.0016  0.0108
 10 H           0.1281  0.6544  0.3140  0.0356  0.0244  0.0252  0.0126  0.0018  0.0019 -0.0048
                0.0002 -0.0056
 11 H           0.0630  0.5546  0.3177  0.0375  0.0399  0.0376  0.0042  0.0019  0.0023  0.0007
                0.0018 -0.0001
 12 H           0.2392  0.5832  0.3161  0.0252  0.0318  0.0265 -0.0045  0.0016  0.0004  0.0098
                0.0015 -0.0030
 13 H           0.1087  0.6763  0.3112  0.0248  0.0245  0.0443 -0.0053  0.0002  0.0021 -0.0059
                0.0020  0.0132
 14 H           0.1625  0.6405  0.3132  0.0315  0.0239  0.0275  0.0106  0.0016  0.0016 -0.0056
                0.0004 -0.0026
 15 H           0.1348  0.6491  0.3155  0.0350  0.0250  0.0224  0.0101  0.0016  0.0015 -0.0047
                0.0004 -0.0030
[...]
                                    1.38%     1 S              -6.532  1.00    10 H
                                    1.21%     1 P:x            -5.239  0.67     2 C
                                    1.08%     2 P:y             4.589  0.00     5 C
                                   -1.05%     2 S               2.394  0.00    16 H
                                   -1.01%     2 P:x             7.649  0.00     6 N
       3.983  0.00    38 A         16.85%     2 S               2.394  0.00    13 H
                                   12.92%     1 P:y            -5.239  0.67     5 C
                                   10.90%     1 P:z            -5.239  0.67     1 C
                                   10.75%     2 P:y             4.589  0.00     5 C
                                    9.35%     1 S              -6.532  1.00    13 H
                                    8.29%     2 P:z             4.589  0.00     4 C
                                    8.27%     1 P:z            -5.239  0.67     2 C
                                    7.81%     1 S              -6.532  1.00     9 H
                                   -6.97%     2 P:z             4.589  0.00     3 C
                                   -6.69%     2 S               2.394  0.00     9 H
                                    5.77%     1 S              -6.532  1.00    17 H
                                    4.40%     2 P:z             4.589  0.00     1 C
                                   -4.37%     2 S               2.394  0.00    17 H
                                   -4.10%     2 P:x             4.589  0.00     1 C
                                    3.67%     2 P:z             4.589  0.00     5 C
                                    3.10%     1 S              -6.532  1.00    10 H
                                    2.95%     2 P:z             4.589  0.00     2 C
                                    2.70%     1 S              -6.532  1.00    16 H
                                    2.44%     3 S              40.869  0.00    13 H
                                   -2.31%     2 S               2.394  0.00    10 H
                                    2.12%     2 P:x             4.589  0.00     4 C
                                   -1.97%     2 S               2.394  0.00    16 H
                                   -1.83%     1 P:z            -5.239  0.67     3 C
                                    1.74%     1 S              -6.532  1.00     7 H
                                    1.62%     1 P:z            11.051  0.00    14 H
                                    1.52%     2 S               2.394  0.00    14 H
                                    1.51%     2 P:x             4.589  0.00     5 C
                                   -1.46%     3 S              14.073  0.00     6 N
                                   -1.42%     3 S              10.158  0.00     4 C
                                    1.41%     1 P:y            11.051  0.00    15 H
                                    1.41%     1 P:x            -5.239  0.67     5 C
                                    1.38%     2 P:x             7.649  0.00     6 N
                                   -1.38%     3 S              10.158  0.00     2 C
                                   -1.09%     3 S              40.869  0.00    17 H
                                    1.09%     1 P:y            -5.239  0.67     2 C
       4.161  0.00    39 A         26.58%     2 P:x             4.589  0.00     5 C
                                   20.02%     2 P:y             4.589  0.00     1 C
                                   11.00%     1 P:x            -5.239  0.67     5 C
                                    8.53%     2 P:y             4.589  0.00     3 C
                                   -6.84%     2 P:x             4.589  0.00     1 C
                                    4.57%     2 P:y             4.589  0.00     4 C
                                   -3.92%     2 P:y             7.649  0.00     6 N
                                    3.69%     2 P:z             7.649  0.00     6 N
                                   -3.68%     2 P:x             4.589  0.00     3 C
                                    3.66%     1 S              -6.532  1.00    15 H
                                    3.64%     1 S              -6.532  1.00    12 H
                                    3.44%     1 S              -6.532  1.00    16 H
                                    3.13%     1 P:y            -5.239  0.67     4 C
                                    3.12%     2 P:z             4.589  0.00     4 C
                                    3.02%     2 P:x             4.589  0.00     2 C
                                    3.01%     2 P:y             4.589  0.00     2 C
                                    2.87%     1 P:y            -5.239  0.67     2 C
                                   -2.78%     2 S               2.394  0.00     7 H
                                    2.54%     1 P:y            -5.239  0.67     5 C
                                    2.48%     1 S              -6.532  1.00    11 H
                                   -2.35%     3 S              10.158  0.00     4 C
                                   -2.27%     3 S              40.869  0.00    15 H
                                    2.18%     1 P:x            -5.239  0.67     1 C
                                    1.93%     1 P:y            11.051  0.00    11 H
                                    1.93%     1 P:x            -5.239  0.67     3 C
                                   -1.87%     2 S               2.394  0.00    15 H
                                    1.84%     2 S               2.394  0.00    12 H
                                    1.80%     1 P:z            -5.239  0.67     4 C
                                   -1.62%     2 S               2.394  0.00    16 H
                                    1.49%     2 S               2.394  0.00    10 H
                                    1.43%     1 P:z            -7.062  1.00     6 N
                                   -1.30%     3 S              10.158  0.00     1 C
                                    1.19%     1 P:x            11.051  0.00    17 H
                                    1.09%     2 S               2.394  0.00    17 H
                                   -1.05%     3 S              14.073  0.00     6 N
                                   -1.03%     2 S               2.394  0.00     8 H
       4.294  0.00    40 A         16.51%     2 P:z             4.589  0.00     2 C
                                   15.96%     1 P:z            -5.239  0.67     2 C
                                   11.73%     2 P:y             4.589  0.00     2 C
                                  -10.33%     2 P:x             4.589  0.00     1 C
                                    9.75%     1 P:y            -5.239  0.67     2 C
                                    9.61%     2 P:y             4.589  0.00     5 C
                                    6.82%     2 P:z             4.589  0.00     5 C
                                    6.61%     1 P:y            -5.239  0.67     5 C
                                    6.47%     1 S              -6.532  1.00     9 H
                                   -6.34%     3 S              10.158  0.00     1 C
                                    5.40%     1 S              -6.532  1.00    16 H
                                    4.80%     1 S              -6.532  1.00    13 H
                                    4.70%     1 S              -6.532  1.00     8 H
                                    3.80%     1 P:x            -5.239  0.67     1 C
                                   -3.79%     2 S               2.394  0.00     9 H
                                   -3.76%     2 S               2.394  0.00    16 H
                                    3.42%     1 P:z            -5.239  0.67     5 C
                                    3.22%     1 P:x            -5.239  0.67     2 C
                                    3.06%     1 S              -6.532  1.00     7 H
                                   -3.03%     2 P:y             4.589  0.00     3 C
                                    2.99%     1 P:z            -5.239  0.67     4 C
                                    2.83%     1 S              -6.532  1.00    11 H
                                   -2.41%     2 P:z             4.589  0.00     4 C
                                   -2.26%     2 S               2.394  0.00     8 H
                                    2.15%     2 S             -13.620  2.00     1 C
                                    1.93%     1 S              -6.532  1.00    10 H
                                   -1.82%     2 P:y             4.589  0.00     1 C
                                   -1.80%     3 S              40.869  0.00    16 H
                                    1.69%     1 P:x            -5.239  0.67     5 C
                                    1.53%     2 P:x             4.589  0.00     2 C
                                    1.43%     2 S               2.394  0.00    17 H
                                   -1.35%     2 S               2.394  0.00    12 H
                                    1.30%     1 P:y            -5.239  0.67     4 C
                                    1.25%     2 P:x             4.589  0.00     4 C
                                   -1.22%     2 S               2.394  0.00    11 H
                                   -1.10%     2 P:x             4.589  0.00     3 C
                                    1.07%     1 P:z            -7.062  1.00     6 N
                                   -1.03%     2 S               2.394  0.00    13 H



 =======================================================================
 Electrostatic potential at the Nuclei due to electrons and other nuclei
 =======================================================================
  
         Atom                  Potential
         ----                  ---------
     1)   C                  14.79066033
     2)   C                  14.79662165
     3)   N                  18.35654624
     4)   C                  14.77986530
     5)   C                  14.79766141
     6)   C                  14.79296755
     7)   H                   1.12328978
     8)   H                   1.12783137
     9)   H                   1.12485991
    10)   H                   1.12790309
    11)   H                   1.01236959
    12)   H                   1.12714903
    13)   H                   1.12418313
    14)   H                   1.12641681
    15)   H                   1.12255158
    16)   H                   1.12554549
    17)   H                   1.11483266
 Mulliken charges used for AMS results%charges...


    =====================
     CALCULATION RESULTS
    =====================

Energy (hartree)            -3.26290869


--------------
Atomic charges
--------------
  Index   Atom    Charge
      1      C    0.1930
      2      C    0.6042
      3      N    0.0651
      4      C    0.0426
      5      C    0.6401
      6      C    0.6285
      7      H   -0.2124
      8      H   -0.1883
      9      H   -0.2436
     10      H   -0.1878
     11      H   -0.0611
     12      H   -0.2280
     13      H   -0.1961
     14      H   -0.2051
     15      H   -0.1878
     16      H   -0.2160
     17      H   -0.2473


Dipole moment vector    (Debye):    -0.62369424    0.13825577   -0.60978274
              magnitude (Debye):     0.88314447


-----------------------
Molecular orbitals info
-----------------------
n orbitals:              277
n spin:                    1

Note: only printing virtual orbitals with
      energy smaller than HOMO + 100. eV

HOMO (eV):              -3.2520
LUMO (eV):              -0.8330
HOMO-LUMO gap (eV):      2.4190

   Index   Energy (eV)    Occupation
     184       96.5772         0.000       
     183       95.6016         0.000       
     182       95.4187         0.000       
     181       95.1547         0.000       
     180       95.1134         0.000       
     179       93.9626         0.000       
     178       93.6627         0.000       
     177       92.9733         0.000       
     176       91.8140         0.000       
     175       91.5747         0.000       
     174       91.1006         0.000       
     173       90.2438         0.000       
     172       88.0319         0.000       
     171       87.0207         0.000       
     170       86.6945         0.000       
     169       86.0734         0.000       
     168       85.1911         0.000       
     167       84.7139         0.000       
     166       83.1791         0.000       
     165       82.9080         0.000       
     164       81.8237         0.000       
     163       81.3448         0.000       
     162       80.9853         0.000       
     161       80.5521         0.000       
     160       79.4275         0.000       
     159       79.1459         0.000       
     158       78.7531         0.000       
     157       78.4321         0.000       
     156       78.3334         0.000       
     155       77.9449         0.000       
     154       77.2912         0.000       
     153       76.8300         0.000       
     152       76.3320         0.000       
     151       75.9091         0.000       
     150       75.6213         0.000       
     149       74.5476         0.000       
     148       74.0993         0.000       
     147       72.1630         0.000       
     146       71.6306         0.000       
     145       69.8109         0.000       
     144       67.7037         0.000       
     143       66.9787         0.000       
     142       66.2610         0.000       
     141       65.5103         0.000       
     140       65.2161         0.000       
     139       64.0971         0.000       
     138       62.6489         0.000       
     137       61.3182         0.000       
     136       60.2357         0.000       
     135       60.0234         0.000       
     134       59.0663         0.000       
     133       57.8690         0.000       
     132       57.4601         0.000       
     131       56.7349         0.000       
     130       55.7681         0.000       
     129       55.7102         0.000       
     128       54.9444         0.000       
     127       54.5013         0.000       
     126       53.3284         0.000       
     125       53.1444         0.000       
     124       52.6476         0.000       
     123       52.1232         0.000       
     122       50.7586         0.000       
     121       50.5868         0.000       
     120       50.0750         0.000       
     119       49.3691         0.000       
     118       48.3243         0.000       
     117       47.3830         0.000       
     116       46.8110         0.000       
     115       46.1810         0.000       
     114       44.9158         0.000       
     113       44.8114         0.000       
     112       43.0268         0.000       
     111       42.4042         0.000       
     110       41.8745         0.000       
     109       40.8619         0.000       
     108       40.1951         0.000       
     107       39.4182         0.000       
     106       39.1328         0.000       
     105       38.1522         0.000       
     104       37.5659         0.000       
     103       37.0425         0.000       
     102       36.5888         0.000       
     101       35.9779         0.000       
     100       34.9311         0.000       
      99       34.0458         0.000       
      98       33.6405         0.000       
      97       33.4741         0.000       
      96       32.5131         0.000       
      95       32.2622         0.000       
      94       31.5844         0.000       
      93       31.1234         0.000       
      92       30.3784         0.000       
      91       29.8839         0.000       
      90       29.6134         0.000       
      89       29.3820         0.000       
      88       28.5323         0.000       
      87       28.5223         0.000       
      86       27.7876         0.000       
      85       27.0260         0.000       
      84       26.8161         0.000       
      83       26.2334         0.000       
      82       25.9608         0.000       
      81       24.9306         0.000       
      80       24.2861         0.000       
      79       23.9138         0.000       
      78       22.6937         0.000       
      77       22.5359         0.000       
      76       21.7171         0.000       
      75       20.8568         0.000       
      74       20.2671         0.000       
      73       19.6039         0.000       
      72       19.4255         0.000       
      71       16.9454         0.000       
      70       16.3502         0.000       
      69       15.7841         0.000       
      68       14.8854         0.000       
      67       14.4595         0.000       
      66       14.0060         0.000       
      65       13.2744         0.000       
      64       12.9160         0.000       
      63       12.7067         0.000       
      62       11.9286         0.000       
      61       11.3821         0.000       
      60       11.1550         0.000       
      59       10.7904         0.000       
      58       10.5579         0.000       
      57       10.3911         0.000       
      56       10.2274         0.000       
      55        9.7083         0.000       
      54        9.0497         0.000       
      53        8.8298         0.000       
      52        8.6866         0.000       
      51        8.1503         0.000       
      50        7.7252         0.000       
      49        7.5085         0.000       
      48        7.3124         0.000       
      47        6.7519         0.000       
      46        6.5988         0.000       
      45        6.1665         0.000       
      44        6.0063         0.000       
      43        5.7146         0.000       
      42        4.9523         0.000       
      41        4.8820         0.000       
      40        4.2942         0.000       
      39        4.1611         0.000       
      38        3.9830         0.000       
      37        3.4111         0.000       
      36        2.8660         0.000       
      35        2.5384         0.000       
      34        2.2189         0.000       
      33        2.0719         0.000       
      32        1.7824         0.000       
      31        1.2603         0.000       
      30        1.1792         0.000       
      29        1.1118         0.000       
      28        0.3831         0.000       
      27        0.2136         0.000       
      26       -0.3990         0.000       
      25       -0.8330         0.000 < LUMO
      24       -3.2520         2.000 < HOMO
      23       -8.1212         2.000       
      22       -8.3623         2.000       
      21       -8.5822         2.000       
      20       -9.0985         2.000       
      19       -9.2058         2.000       
      18       -9.5439         2.000       
      17       -9.6516         2.000       
      16       -9.7777         2.000       
      15      -10.6351         2.000       
      14      -11.1285         2.000       
      13      -12.1820         2.000       
      12      -13.8053         2.000       
      11      -15.6012         2.000       
      10      -16.8485         2.000       
       9      -17.9019         2.000       
       8      -19.0809         2.000       
       7      -23.9630         2.000       
       6     -269.6578         2.000       
       5     -269.6773         2.000       
       4     -269.7970         2.000       
       3     -269.8413         2.000       
       2     -270.1151         2.000       
       1     -383.1582         2.000       

AMS application finished. Exiting.
NORMAL TERMINATION
     Total cpu time:      42.98
  Total system time:       0.24
 Total elapsed time:      43.51
NORMAL TERMINATION
