
 *******************************************************************************
 *                                                                             *
 *  --------------------------------                                           *
 *   Amsterdam Modeling Suite (AMS)              2026.103                      *
 *  --------------------------------                                           *
 *                                               r260501 2026-05-01 873454b5   *
 *                                                                             *
 *                                                                             *
 *                              =================                              *
 *                              |               |                              *
 *                              |     A M S     |                              *
 *                              |               |                              *
 *                              =================                              *
 *                                                                             *
 *                                                                             *
 *   Online information and documentation:  https://www.scm.com/support/       *
 *   E-mail:  support@scm.com   info@scm.com                                   *
 *                                                                             *
 *   Scientific publications using AMS results must be properly referenced     *
 *   See the User Manuals (or the web site) for recommended citations          *
 *   The terms and conditions of the End User License Agreement apply to       *
 *   the use of AMS, https://www.scm.com/license-terms/                        *
 *                                                                             *
 **********************  x86_64_linux_intel / intelmpi  ************************
 
 Licensed to: Jong-June Jeon / University of Seoul 2026-05-13 16:10:32
 SCM User ID: u30731
  
 AMS 2026.103  RunTime: May30-2026 10:32:53  ShM Nodes: 1  Procs: 1

 AMS jobname: c5_fragB_opt
 AMS jobid  : 1519982816

 Start   directory: /gpfs/home1/yeseo1ee/projects/eda-asm-prediction/adf_outputs/batch_000/dipolar_000634/
 Results directory: /gpfs/home1/yeseo1ee/projects/eda-asm-prediction/adf_outputs/batch_000/dipolar_000634/c5_fragB_opt.results/
 Scratch directory: /tmp/amstmp_c5_fragB_opt_kid0.1519982816/

 RNG seed: 1916246309 1141224515 -2003484923 -551449711 1100851065 1662667404 1685622929 902964013



                      ************************************************************************
                      *  ADF 2026.103  RunTime: May30-2026 10:32:53  ShM Nodes: 1  Procs: 1  *
                      ************************************************************************
  

       ***************************
       *  GEOMETRY OPTIMIZATION  *
       ***************************

Optimization Method                    Quasi Newton
Optimization Coordinates               Delocalized Coordinates
Optimize lattice                       F
 
 ------------------------------------------------------
 Convergence criteria (Hartree,Angstrom)
 ------------------------------------------------------
 Maximum gradient               0.000100000000
 Maximum rms gradient           0.000066666667
 Maximum step allowed           0.010000000000
 Maximum rms step allowed       0.006666666667
 Maximum energy change allowe   0.000200000000
 Maximum stress energy allowe   0.000500000000
 
Initial model Hessian                  Automatic Hessian
 
------------------------------------
Quasi-Newton Optimizer Parameters
------------------------------------
Hessian Update Method                  BFGS
Maximum number of steps                  200
First GDIIS cycle                          0
Maximum GDIIS vectors                      0
Trust radius (bohr)                        0.200000
Trust radius varies                        T
Constraints converged at all steps         T
Use projector                              T
 
 Rigid motions settings for: old optimizer
 Atomic rotations (x,y,z):     T T T
 Atomic translations (x,y,z):  T T T
 Tolerance:                  1.000000000000000E-006

--------
Geometry
--------
Formula: C8H11Cl
Atoms
  Index Symbol   x (angstrom)   y (angstrom)   z (angstrom)
      1      C     1.43608000     1.09562000    -0.06054000
      2      C     0.47537000     0.50873000    -0.56750000
      3      C    -0.04127000    -0.16810000    -1.75938000
      4     Cl     0.07185000    -2.00040000    -1.51887000
      5      C     0.72508000     0.24329000    -3.01857000
      6      C     2.25399000     0.06862000    -3.00706000
      7      C     3.14329000     1.21713000    -2.46364000
      8      C     3.67693000     1.10820000    -1.02250000
      9      C     2.76166000     1.67297000     0.08627000
     10      H    -1.11682000     0.00045000    -1.89873000
     11      H     0.29824000    -0.33422000    -3.85340000
     12      H     0.46874000     1.30058000    -3.20593000
     13      H     2.50573000    -0.87518000    -2.49401000
     14      H     2.54338000    -0.08558000    -4.05813000
     15      H     4.02880000     1.26327000    -3.11698000
     16      H     2.62904000     2.18559000    -2.59784000
     17      H     3.89911000     0.05168000    -0.79675000
     18      H     4.63309000     1.65106000    -0.95004000
     19      H     2.68899000     2.77098000     0.00210000
     20      H     3.19069000     1.45850000     1.07842000

Total System Charge              0.00000


----------------
ADF Engine Input
----------------
 
   Basis
     Type TZ2P
     Core None
   End
   XC
     GGA BLYP
     Dispersion GRIMME3 BJDAMP
   End
   Symmetry NOSYM
   NumericalQuality Normal
   Unrestricted No
   SCF
     Iterations 200
     Converge 1.0e-6
   End
   Save TAPE21
 

 Title: *** (NO TITLE) ***

 Using automatic Hessian for delocalized coordinates.
 *** GO1_GOStep1 ***

 Energy gradients wrt nuclear displacements
 ==========================================

     Atom      Cartesian (a.u./angstrom)
                 X         Y         Z
 ----------------------------------------
     1 C     0.057338  0.037352  0.031889
     2 C    -0.069578 -0.031582 -0.006415
     3 C     0.025249 -0.010171 -0.024214
     4 Cl    0.000884  0.015747 -0.000985
     5 C     0.004684 -0.007711  0.010975
     6 C    -0.005797  0.012330  0.004841
     7 C    -0.002466 -0.011075  0.007929
     8 C    -0.014220  0.006751 -0.002351
     9 C     0.008180 -0.010075 -0.019853
    10 H    -0.003603  0.002287  0.002113
    11 H    -0.001647 -0.001385 -0.003083
    12 H    -0.001591  0.002794 -0.000396
    13 H     0.001314 -0.004692  0.002147
    14 H     0.000710 -0.000203 -0.003266
    15 H     0.002603 -0.000485 -0.002128
    16 H    -0.001788  0.003505 -0.000860
    17 H     0.001739 -0.004857  0.000632
    18 H     0.001956  0.001558  0.000529
    19 H    -0.003073  0.001934 -0.000134
    20 H    -0.000895 -0.002022  0.002627
 ----------------------------------------
 
----------------------------------------------------------------------
Geometry Convergence after Step   1       (Hartree/Angstrom,Angstrom)
----------------------------------------------------------------------
current energy                               -3.97380011 Hartree
energy change                      -3.97380011     0.00020000    F
constrained gradient max            0.06956408     0.00010000    F
constrained gradient rms            0.01567795     0.00006667    F
gradient max                        0.06956408
gradient rms                        0.01567795
cart. step max                      0.06350261     0.01000000    F
cart. step rms                      0.01490759     0.00666667    F
 

--------
Geometry
--------
Formula: C8H11Cl
Atoms
  Index Symbol   x (angstrom)   y (angstrom)   z (angstrom)
      1      C     1.45133623     1.07649950    -0.09703301
      2      C     0.52105957     0.50327780    -0.60092246
      3      C    -0.05620111    -0.17464489    -1.75827322
      4     Cl     0.00834739    -2.01903738    -1.52130764
      5      C     0.71856840     0.23394025    -3.02167847
      6      C     2.25440351     0.06553151    -3.00316162
      7      C     3.14383418     1.22359827    -2.46078157
      8      C     3.69138815     1.12062278    -1.01794545
      9      C     2.76432303     1.67428014     0.09452127
     10      H    -1.12639930     0.02083415    -1.88741447
     11      H     0.29567148    -0.34425253    -3.85527066
     12      H     0.46639040     1.28995707    -3.21161533
     13      H     2.50726373    -0.87217354    -2.48597154
     14      H     2.54708176    -0.09305279    -4.05068848
     15      H     4.02380666     1.27789413    -3.11779786
     16      H     2.62322070     2.18659814    -2.59076419
     17      H     3.91851842     0.06790697    -0.79338326
     18      H     4.64293668     1.66900932    -0.94812211
     19      H     2.69034779     2.77147728     0.01730654
     20      H     3.18607234     1.45492382     1.08722354

Total System Charge              0.00000

 *** GO1_GOStep2 ***

 Energy gradients wrt nuclear displacements
 ==========================================

     Atom      Cartesian (a.u./angstrom)
                 X         Y         Z
 ----------------------------------------
     1 C    -0.021651 -0.015756 -0.018794
     2 C     0.015879  0.020450  0.029756
     3 C     0.012103 -0.011611 -0.016918
     4 Cl   -0.000193  0.007891 -0.000425
     5 C     0.003468 -0.002812  0.009590
     6 C    -0.003261  0.008329  0.002068
     7 C    -0.001547 -0.007332  0.004845
     8 C    -0.009582  0.003333 -0.001621
     9 C     0.005998 -0.004213 -0.008953
    10 H    -0.002320  0.001403  0.000585
    11 H    -0.001830 -0.000386 -0.000521
    12 H    -0.000122  0.001372 -0.000627
    13 H     0.000679 -0.001798  0.000259
    14 H     0.000299 -0.000346 -0.001409
    15 H     0.001285  0.000152 -0.000598
    16 H    -0.000404  0.001538 -0.000758
    17 H     0.000703 -0.001929  0.000225
    18 H     0.000881  0.000715  0.001477
    19 H    -0.000921  0.001437  0.000148
    20 H     0.000537 -0.000437  0.001671
 ----------------------------------------

 dE(predicted):    -0.23613E-02, dE(actual):    -0.24770E-02, Trust radius:    0.400000, all in a.u.
 
----------------------------------------------------------------------
Geometry Convergence after Step   2       (Hartree/Angstrom,Angstrom)
----------------------------------------------------------------------
current energy                               -3.97627713 Hartree
energy change                      -0.00247702     0.00020000    F
constrained gradient max            0.02976182     0.00010000    F
constrained gradient rms            0.00796863     0.00006667    F
gradient max                        0.02976182
gradient rms                        0.00796863
cart. step max                      0.05566865     0.01000000    F
cart. step rms                      0.01588874     0.00666667    F
 

--------
Geometry
--------
Formula: C8H11Cl
Atoms
  Index Symbol   x (angstrom)   y (angstrom)   z (angstrom)
      1      C     1.47273062     1.06620924    -0.10602794
      2      C     0.54596179     0.49263403    -0.63142807
      3      C    -0.07558430    -0.17287611    -1.76581233
      4     Cl    -0.04732126    -2.02619645    -1.53359958
      5      C     0.71101254     0.22213682    -3.03432880
      6      C     2.25252946     0.05867023    -2.99334733
      7      C     3.13707606     1.23131220    -2.45661316
      8      C     3.70655238     1.13623902    -1.01547935
      9      C     2.77729996     1.67444319     0.11130137
     10      H    -1.14066999     0.04312699    -1.88757363
     11      H     0.30128875    -0.36412808    -3.86707137
     12      H     0.46127185     1.27535171    -3.23511324
     13      H     2.50303056    -0.86943895    -2.46194604
     14      H     2.55568738    -0.11118151    -4.03465074
     15      H     4.00859826     1.29458397    -3.12180290
     16      H     2.60519325     2.18692988    -2.58166167
     17      H     3.94501782     0.08719992    -0.79514446
     18      H     4.65274556     1.69315041    -0.95929557
     19      H     2.70052343     2.77101945     0.04659645
     20      H     3.19902588     1.44400404     1.09991837

Total System Charge              0.00000

 *** GO1_GOStep3 ***

 Energy gradients wrt nuclear displacements
 ==========================================

     Atom      Cartesian (a.u./angstrom)
                 X         Y         Z
 ----------------------------------------
     1 C     0.000385 -0.004134 -0.010113
     2 C     0.001285  0.006703  0.010713
     3 C     0.000177 -0.009420 -0.009363
     4 Cl   -0.000158  0.004492 -0.000469
     5 C     0.001510 -0.001135  0.006365
     6 C    -0.001410  0.004333  0.001027
     7 C    -0.000648 -0.003968  0.002156
     8 C    -0.005259  0.001818  0.000101
     9 C     0.003391 -0.000269 -0.000121
    10 H    -0.000956  0.000185 -0.000507
    11 H    -0.001070  0.000368  0.000206
    12 H     0.000326  0.000172 -0.000265
    13 H     0.000642 -0.000237 -0.000740
    14 H    -0.000298 -0.000034 -0.000152
    15 H     0.000227  0.000121  0.000243
    16 H     0.000466  0.000290 -0.000915
    17 H    -0.000038  0.000020 -0.000122
    18 H     0.000323 -0.000274  0.001152
    19 H     0.000313  0.000442  0.000191
    20 H     0.000790  0.000526  0.000610
 ----------------------------------------

 dE(predicted):    -0.66149E-03, dE(actual):    -0.79139E-03, Trust radius:    0.400000, all in a.u.
 
----------------------------------------------------------------------
Geometry Convergence after Step   3       (Hartree/Angstrom,Angstrom)
----------------------------------------------------------------------
current energy                               -3.97706851 Hartree
energy change                      -0.00079139     0.00020000    F
constrained gradient max            0.01072233     0.00010000    F
constrained gradient rms            0.00320202     0.00006667    F
gradient max                        0.01072233
gradient rms                        0.00320202
cart. step max                      0.04114300     0.01000000    F
cart. step rms                      0.01527962     0.00666667    F
 

--------
Geometry
--------
Formula: C8H11Cl
Atoms
  Index Symbol   x (angstrom)   y (angstrom)   z (angstrom)
      1      C     1.48008021     1.05642608    -0.09623522
      2      C     0.56231665     0.48871963    -0.64572469
      3      C    -0.08139180    -0.15841960    -1.76971611
      4     Cl    -0.08846426    -2.01867814    -1.53700424
      5      C     0.71030201     0.21297754    -3.04993942
      6      C     2.25489446     0.04911841    -2.98730692
      7      C     3.12788044     1.23938453    -2.45723267
      8      C     3.71538411     1.14756564    -1.01847130
      9      C     2.78315242     1.66500920     0.12445871
     10      H    -1.14194255     0.07499499    -1.88469244
     11      H     0.31108054    -0.38814065    -3.87628871
     12      H     0.46308821     1.26262263    -3.26820882
     13      H     2.49915441    -0.86703498    -2.43448889
     14      H     2.57124722    -0.13683463    -4.02120775
     15      H     3.99111740     1.31699138    -3.13063467
     16      H     2.57856539     2.18534572    -2.57249821
     17      H     3.97133309     0.10195568    -0.80562208
     18      H     4.65283625     1.71891511    -0.97480043
     19      H     2.70222072     2.76127948     0.07580537
     20      H     3.20911508     1.42099198     1.10672849

Total System Charge              0.00000

 *** GO1_GOStep4 ***

 Energy gradients wrt nuclear displacements
 ==========================================

     Atom      Cartesian (a.u./angstrom)
                 X         Y         Z
 ----------------------------------------
     1 C     0.004167 -0.000779 -0.005311
     2 C    -0.001547  0.001418  0.003806
     3 C    -0.003143 -0.004125 -0.001789
     4 Cl    0.000017  0.002928 -0.000420
     5 C    -0.000834 -0.000389  0.001057
     6 C     0.000383  0.000020  0.000524
     7 C    -0.000144 -0.000335 -0.000314
     8 C    -0.000249  0.000645  0.000955
     9 C    -0.000529  0.000625  0.003947
    10 H     0.000546 -0.000546 -0.000352
    11 H     0.000231  0.000568 -0.000519
    12 H     0.000167 -0.000339  0.000153
    13 H     0.000654  0.000321 -0.000829
    14 H    -0.000580  0.000343  0.000229
    15 H    -0.000150 -0.000322  0.000401
    16 H     0.000656 -0.000186 -0.000845
    17 H    -0.000348  0.000731 -0.000187
    18 H     0.000243 -0.000786 -0.000164
    19 H     0.000420 -0.000354 -0.000025
    20 H     0.000038  0.000559 -0.000316
 ----------------------------------------

 dE(predicted):    -0.26143E-03, dE(actual):    -0.35177E-03, Trust radius:    0.400000, all in a.u.
 
----------------------------------------------------------------------
Geometry Convergence after Step   4       (Hartree/Angstrom,Angstrom)
----------------------------------------------------------------------
current energy                               -3.97742028 Hartree
energy change                      -0.00035177     0.00020000    F
constrained gradient max            0.00530790     0.00010000    F
constrained gradient rms            0.00147736     0.00006667    F
gradient max                        0.00530790
gradient rms                        0.00147736
cart. step max                      0.03216155     0.01000000    F
cart. step rms                      0.01373590     0.00666667    F
 

--------
Geometry
--------
Formula: C8H11Cl
Atoms
  Index Symbol   x (angstrom)   y (angstrom)   z (angstrom)
      1      C     1.48209480     1.04993577    -0.08361195
      2      C     0.57368078     0.48870659    -0.65545890
      3      C    -0.08073873    -0.14458639    -1.77417069
      4     Cl    -0.12062581    -2.01023549    -1.53801647
      5      C     0.71360038     0.20635814    -3.06248518
      6      C     2.25849129     0.04105563    -2.98313268
      7      C     3.11794217     1.24597659    -2.45750917
      8      C     3.72014821     1.15326906    -1.02319344
      9      C     2.78778312     1.65466169     0.13128773
     10      H    -1.13762025     0.10532212    -1.88567552
     11      H     0.31850488    -0.41055477    -3.87845868
     12      H     0.46851884     1.25259855    -3.29839893
     13      H     2.49401550    -0.86405388    -2.40907346
     14      H     2.58844708    -0.16151799    -4.00953661
     15      H     3.97285568     1.34318280    -3.13876764
     16      H     2.54912549     2.18178739    -2.55758866
     17      H     3.99322548     0.11043281    -0.81749566
     18      H     4.64773563     1.74046253    -0.98572344
     19      H     2.70494413     2.75114131     0.09621819
     20      H     3.21984135     1.39924755     1.10771116

Total System Charge              0.00000

 *** GO1_GOStep5 ***

 Energy gradients wrt nuclear displacements
 ==========================================

     Atom      Cartesian (a.u./angstrom)
                 X         Y         Z
 ----------------------------------------
     1 C     0.004149  0.000900 -0.001237
     2 C    -0.002926 -0.001184 -0.000547
     3 C    -0.001844 -0.000593  0.002702
     4 Cl   -0.000066  0.001218 -0.000152
     5 C    -0.001829  0.000594 -0.001910
     6 C     0.001287 -0.002137  0.000104
     7 C    -0.000205  0.001597 -0.001390
     8 C     0.002587 -0.000470  0.000939
     9 C    -0.002786  0.000688  0.003844
    10 H     0.000950 -0.000411 -0.000097
    11 H     0.000653  0.000302 -0.000425
    12 H     0.000117 -0.000170  0.000262
    13 H     0.000365  0.000370 -0.000409
    14 H    -0.000454  0.000455  0.000057
    15 H     0.000033 -0.000635  0.000412
    16 H     0.000388 -0.000168 -0.000501
    17 H    -0.000245  0.000419 -0.000128
    18 H    -0.000065 -0.000452 -0.000695
    19 H     0.000188 -0.000463 -0.000179
    20 H    -0.000298  0.000139 -0.000650
 ----------------------------------------

 dE(predicted):    -0.12867E-03, dE(actual):    -0.16225E-03, Trust radius:    0.400000, all in a.u.
 
----------------------------------------------------------------------
Geometry Convergence after Step   5       (Hartree/Angstrom,Angstrom)
----------------------------------------------------------------------
current energy                               -3.97758253 Hartree
energy change                      -0.00016225     0.00020000    T
constrained gradient max            0.00415263     0.00010000    F
constrained gradient rms            0.00126977     0.00006667    F
gradient max                        0.00415263
gradient rms                        0.00126977
cart. step max                      0.02179892     0.01000000    F
cart. step rms                      0.00893097     0.00666667    F
 

--------
Geometry
--------
Formula: C8H11Cl
Atoms
  Index Symbol   x (angstrom)   y (angstrom)   z (angstrom)
      1      C     1.48272113     1.04771268    -0.07627131
      2      C     0.58003595     0.49129460    -0.66118091
      3      C    -0.07905857    -0.13576460    -1.77864732
      4     Cl    -0.13724381    -2.00387336    -1.53864834
      5      C     0.71733517     0.20164710    -3.06923730
      6      C     2.26085711     0.03717504    -2.97996559
      7      C     3.11020459     1.25019456    -2.45659447
      8      C     3.72121374     1.15479989    -1.02695260
      9      C     2.79220984     1.64802392     0.13340905
     10      H    -1.13420632     0.12383867    -1.88976693
     11      H     0.32295512    -0.42613366    -3.87701693
     12      H     0.47273523     1.24511072    -3.31805538
     13      H     2.49048954    -0.86105155    -2.39249953
     14      H     2.60042035    -0.17702474    -4.00095368
     15      H     3.95824823     1.36431467    -3.14397177
     16      H     2.52732656     2.17864629    -2.54359406
     17      H     4.00320707     0.11305706    -0.82607872
     18      H     4.64370710     1.75016356    -0.99014884
     19      H     2.71013098     2.74499138     0.10654471
     20      H     3.22868098     1.38606776     1.10654991

Total System Charge              0.00000

 *** GO1_GOStep6 ***

 Energy gradients wrt nuclear displacements
 ==========================================

     Atom      Cartesian (a.u./angstrom)
                 X         Y         Z
 ----------------------------------------
     1 C     0.002159  0.000800  0.000172
     2 C    -0.001739 -0.001130 -0.001178
     3 C    -0.000382  0.000649  0.002898
     4 Cl   -0.000050  0.000269 -0.000092
     5 C    -0.001336  0.000675 -0.002077
     6 C     0.001063 -0.001872  0.000009
     7 C    -0.000323  0.001559 -0.001233
     8 C     0.002427 -0.000825  0.000421
     9 C    -0.002573  0.000448  0.002125
    10 H     0.000411 -0.000062 -0.000108
    11 H     0.000408  0.000020 -0.000068
    12 H     0.000110 -0.000028  0.000280
    13 H     0.000075  0.000221 -0.000052
    14 H    -0.000236  0.000316 -0.000125
    15 H     0.000251 -0.000571  0.000276
    16 H     0.000173 -0.000103 -0.000209
    17 H    -0.000109  0.000024 -0.000047
    18 H    -0.000291 -0.000003 -0.000422
    19 H     0.000100 -0.000251 -0.000199
    20 H    -0.000138 -0.000136 -0.000372
 ----------------------------------------

 dE(predicted):    -0.44602E-04, dE(actual):    -0.58906E-04, Trust radius:    0.400000, all in a.u.
 
----------------------------------------------------------------------
Geometry Convergence after Step   6       (Hartree/Angstrom,Angstrom)
----------------------------------------------------------------------
current energy                               -3.97764144 Hartree
energy change                      -0.00005891     0.00020000    T
constrained gradient max            0.00291138     0.00010000    F
constrained gradient rms            0.00095843     0.00006667    F
gradient max                        0.00291138
gradient rms                        0.00095843
cart. step max                      0.01544600     0.01000000    F
cart. step rms                      0.00539310     0.00666667    T
 

--------
Geometry
--------
Formula: C8H11Cl
Atoms
  Index Symbol   x (angstrom)   y (angstrom)   z (angstrom)
      1      C     1.48316959     1.04807512    -0.07377330
      2      C     0.58307423     0.49446148    -0.66488771
      3      C    -0.07791928    -0.13145223    -1.78239111
      4     Cl    -0.14549747    -2.00001277    -1.53717627
      5      C     0.72019608     0.19818933    -3.07243669
      6      C     2.26217533     0.03607902    -2.97771673
      7      C     3.10489321     1.25286505    -2.45482355
      8      C     3.72115323     1.15455027    -1.02919175
      9      C     2.79604748     1.64467654     0.13343865
     10      H    -1.13228985     0.13299524    -1.89405960
     11      H     0.32614140    -0.43559505    -3.87572006
     12      H     0.47502063     1.23963174    -3.32970014
     13      H     2.48921815    -0.85881811    -2.38375360
     14      H     2.60772301    -0.18452219    -3.99536958
     15      H     3.94741115     1.37976067    -3.14686300
     16      H     2.51301600     2.17659366    -2.53207090
     17      H     4.00563264     0.11270400    -0.83126857
     18      H     4.64294979     1.75134796    -0.99168150
     19      H     2.71557296     2.74209992     0.11102242
     20      H     3.23428171     1.37956036     1.10534299

Total System Charge              0.00000

 *** GO1_GOStep7 ***

 Energy gradients wrt nuclear displacements
 ==========================================

     Atom      Cartesian (a.u./angstrom)
                 X         Y         Z
 ----------------------------------------
     1 C     0.000375  0.000375  0.000393
     2 C    -0.000362 -0.000448 -0.000579
     3 C     0.000306  0.000610  0.001275
     4 Cl   -0.000103 -0.000194  0.000012
     5 C    -0.000401  0.000417 -0.001082
     6 C     0.000390 -0.000717  0.000009
     7 C    -0.000302  0.000647 -0.000462
     8 C     0.001122 -0.000601 -0.000078
     9 C    -0.001256  0.000128  0.000461
    10 H    -0.000100  0.000161 -0.000123
    11 H     0.000046 -0.000065  0.000159
    12 H     0.000118  0.000032  0.000161
    13 H    -0.000068  0.000043  0.000086
    14 H    -0.000062  0.000118 -0.000116
    15 H     0.000287 -0.000345  0.000106
    16 H     0.000087 -0.000024 -0.000024
    17 H    -0.000017 -0.000142 -0.000009
    18 H    -0.000237  0.000209 -0.000032
    19 H     0.000088 -0.000033 -0.000120
    20 H     0.000088 -0.000171 -0.000035
 ----------------------------------------

 dE(predicted):    -0.17819E-04, dE(actual):    -0.25361E-04, Trust radius:    0.400000, all in a.u.
 
----------------------------------------------------------------------
Geometry Convergence after Step   7       (Hartree/Angstrom,Angstrom)
----------------------------------------------------------------------
current energy                               -3.97766680 Hartree
energy change                      -0.00002536     0.00020000    T
constrained gradient max            0.00128700     0.00010000    F
constrained gradient rms            0.00040962     0.00006667    F
gradient max                        0.00128700
gradient rms                        0.00040962
cart. step max                      0.00594727     0.01000000    T
cart. step rms                      0.00180794     0.00666667    T
 

--------
Geometry
--------
Formula: C8H11Cl
Atoms
  Index Symbol   x (angstrom)   y (angstrom)   z (angstrom)
      1      C     1.48353269     1.04939919    -0.07440817
      2      C     0.58352223     0.49642919    -0.66615495
      3      C    -0.07760501    -0.13073164    -1.78380047
      4     Cl    -0.14583359    -1.99882133    -1.53572352
      5      C     0.72110045     0.19689484    -3.07294703
      6      C     2.26243840     0.03645549    -2.97699457
      7      C     3.10309760     1.25376560    -2.45365097
      8      C     3.72079622     1.15372593    -1.02959102
      9      C     2.79778242     1.64442777     0.13298334
     10      H    -1.13192425     0.13402851    -1.89572099
     11      H     0.32759633    -0.43819436    -3.87560070
     12      H     0.47508414     1.23756951    -3.33295636
     13      H     2.48950880    -0.85802624    -2.38223097
     14      H     2.60964406    -0.18544569    -3.99378745
     15      H     3.94321738     1.38570794    -3.14761098
     16      H     2.50832698     2.17601348    -2.52721909
     17      H     4.00352242     0.11123276    -0.83240500
     18      H     4.64439765     1.74791410    -0.99180877
     19      H     2.71834492     2.74203191     0.11144922
     20      H     3.23542015     1.37881303     1.10509845

Total System Charge              0.00000

 *** GO1_GOStep8 ***

 Energy gradients wrt nuclear displacements
 ==========================================

     Atom      Cartesian (a.u./angstrom)
                 X         Y         Z
 ----------------------------------------
     1 C    -0.000192  0.000138  0.000163
     2 C     0.000162 -0.000072 -0.000074
     3 C     0.000210  0.000349  0.000125
     4 Cl   -0.000102 -0.000175  0.000029
     5 C     0.000093  0.000121 -0.000231
     6 C    -0.000024  0.000019  0.000054
     7 C    -0.000145 -0.000032  0.000029
     8 C     0.000162 -0.000251 -0.000216
     9 C    -0.000276 -0.000047 -0.000126
    10 H    -0.000187  0.000173 -0.000085
    11 H    -0.000082 -0.000016  0.000109
    12 H     0.000070  0.000033  0.000051
    13 H    -0.000060 -0.000038  0.000060
    14 H     0.000001  0.000002 -0.000036
    15 H     0.000160 -0.000184  0.000022
    16 H     0.000086  0.000008  0.000006
    17 H     0.000014 -0.000107 -0.000007
    18 H    -0.000084  0.000125  0.000087
    19 H     0.000084  0.000034 -0.000037
    20 H     0.000110 -0.000080  0.000075
 ----------------------------------------

 dE(predicted):    -0.40294E-05, dE(actual):    -0.90718E-05, Trust radius:    0.400000, all in a.u.
 
----------------------------------------------------------------------
Geometry Convergence after Step   8       (Hartree/Angstrom,Angstrom)
----------------------------------------------------------------------
current energy                               -3.97767587 Hartree
energy change                      -0.00000907     0.00020000    T
constrained gradient max            0.00029338     0.00010000    F
constrained gradient rms            0.00011912     0.00006667    F
gradient max                        0.00029338
gradient rms                        0.00011912
cart. step max                      0.00316283     0.01000000    T
cart. step rms                      0.00083414     0.00666667    T
 

--------
Geometry
--------
Formula: C8H11Cl
Atoms
  Index Symbol   x (angstrom)   y (angstrom)   z (angstrom)
      1      C     1.48375994     1.05042346    -0.07531404
      2      C     0.58336883     0.49744581    -0.66649737
      3      C    -0.07748612    -0.13092887    -1.78401528
      4     Cl    -0.14457068    -1.99855708    -1.53457442
      5      C     0.72119090     0.19651315    -3.07291940
      6      C     2.26249087     0.03686390    -2.97708222
      7      C     3.10272139     1.25410054    -2.45316943
      8      C     3.72061185     1.15307223    -1.02938836
      9      C     2.79832320     1.64493467     0.13277453
     10      H    -1.13186580     0.13315662    -1.89593836
     11      H     0.32817832    -0.43860519    -3.87585857
     12      H     0.47464129     1.23696952    -3.33351024
     13      H     2.49005005    -0.85784881    -2.38284221
     14      H     2.60979491    -0.18476375    -3.99388251
     15      H     3.94207465     1.38771354    -3.14766413
     16      H     2.50718898     2.17596913    -2.52561186
     17      H     4.00121907     0.11002522    -0.83219584
     18      H     4.64584331     1.74475127    -0.99168631
     19      H     2.71940427     2.74256893     0.11103793
     20      H     3.23503077     1.37938569     1.10525808

Total System Charge              0.00000

 *** GO1_GOStep9 ***

 Energy gradients wrt nuclear displacements
 ==========================================

     Atom      Cartesian (a.u./angstrom)
                 X         Y         Z
 ----------------------------------------
     1 C    -0.000182  0.000077  0.000004
     2 C     0.000173  0.000012  0.000067
     3 C     0.000023  0.000209 -0.000213
     4 Cl   -0.000102 -0.000068  0.000028
     5 C     0.000166 -0.000010  0.000099
     6 C    -0.000132  0.000188  0.000056
     7 C    -0.000024 -0.000223  0.000164
     8 C    -0.000167 -0.000057 -0.000148
     9 C     0.000094 -0.000088 -0.000150
    10 H    -0.000088  0.000126 -0.000036
    11 H    -0.000068  0.000041  0.000015
    12 H     0.000033  0.000035 -0.000011
    13 H    -0.000037 -0.000043  0.000016
    14 H     0.000004 -0.000048  0.000010
    15 H     0.000066 -0.000105 -0.000000
    16 H     0.000089  0.000014 -0.000017
    17 H     0.000018 -0.000059  0.000001
    18 H     0.000017 -0.000003  0.000062
    19 H     0.000070  0.000021  0.000001
    20 H     0.000045 -0.000018  0.000053
 ----------------------------------------

 dE(predicted):    -0.87101E-06, dE(actual):    -0.32344E-05, Trust radius:    0.400000, all in a.u.
 
----------------------------------------------------------------------
Geometry Convergence after Step   9       (Hartree/Angstrom,Angstrom)
----------------------------------------------------------------------
current energy                               -3.97767910 Hartree
energy change                      -0.00000323     0.00020000    T
constrained gradient max            0.00020509     0.00010000    F
constrained gradient rms            0.00008612     0.00006667    F
gradient max                        0.00020509
gradient rms                        0.00008612
cart. step max                      0.00194072     0.01000000    T
cart. step rms                      0.00051606     0.00666667    T
 

--------
Geometry
--------
Formula: C8H11Cl
Atoms
  Index Symbol   x (angstrom)   y (angstrom)   z (angstrom)
      1      C     1.48386278     1.05108051    -0.07576233
      2      C     0.58325261     0.49810379    -0.66664578
      3      C    -0.07736414    -0.13100984    -1.78394255
      4     Cl    -0.14363529    -1.99836815    -1.53379227
      5      C     0.72116050     0.19632687    -3.07299332
      6      C     2.26259325     0.03701773    -2.97735397
      7      C     3.10258230     1.25433588    -2.45299633
      8      C     3.72056703     1.15261344    -1.02917987
      9      C     2.79849426     1.64531245     0.13275610
     10      H    -1.13178247     0.13260158    -1.89588564
     11      H     0.32842939    -0.43892147    -3.87598095
     12      H     0.47434985     1.23667862    -3.33382287
     13      H     2.49044349    -0.85783314    -2.38345887
     14      H     2.60981959    -0.18420986    -3.99425736
     15      H     3.94163146     1.38883297    -3.14764037
     16      H     2.50655361     2.17592918    -2.52478032
     17      H     3.99972466     0.10919792    -0.83193666
     18      H     4.64672434     1.74281054    -0.99158490
     19      H     2.71992436     2.74294587     0.11075261
     20      H     3.23463841     1.37974510     1.10542565

Total System Charge              0.00000

 *** GO1_GOStep10 ***

 Energy gradients wrt nuclear displacements
 ==========================================

     Atom      Cartesian (a.u./angstrom)
                 X         Y         Z
 ----------------------------------------
     1 C    -0.000082  0.000077 -0.000043
     2 C     0.000073  0.000001  0.000050
     3 C    -0.000061  0.000168 -0.000184
     4 Cl   -0.000100  0.000006  0.000017
     5 C     0.000092 -0.000035  0.000138
     6 C    -0.000104  0.000122  0.000026
     7 C     0.000033 -0.000182  0.000134
     8 C    -0.000174 -0.000000 -0.000050
     9 C     0.000151 -0.000070 -0.000068
    10 H    -0.000006  0.000098 -0.000009
    11 H    -0.000033  0.000063 -0.000032
    12 H     0.000017  0.000041 -0.000030
    13 H    -0.000030 -0.000032  0.000002
    14 H    -0.000002 -0.000059  0.000022
    15 H     0.000030 -0.000074  0.000001
    16 H     0.000078  0.000005 -0.000028
    17 H     0.000010 -0.000047  0.000012
    18 H     0.000054 -0.000077  0.000022
    19 H     0.000056 -0.000002  0.000008
    20 H    -0.000004 -0.000004  0.000014
 ----------------------------------------

 dE(predicted):    -0.23721E-06, dE(actual):    -0.10980E-05, Trust radius:    0.400000, all in a.u.
 
----------------------------------------------------------------------
Geometry Convergence after Step  10       (Hartree/Angstrom,Angstrom)
----------------------------------------------------------------------
current energy                               -3.97768020 Hartree
energy change                      -0.00000110     0.00020000    T
constrained gradient max            0.00018469     0.00010000    F
constrained gradient rms            0.00006380     0.00006667    T
gradient max                        0.00018469
gradient rms                        0.00006380
cart. step max                      0.00106702     0.01000000    T
cart. step rms                      0.00033050     0.00666667    T
 

--------
Geometry
--------
Formula: C8H11Cl
Atoms
  Index Symbol   x (angstrom)   y (angstrom)   z (angstrom)
      1      C     1.48388510     1.05149465    -0.07589201
      2      C     0.58319224     0.49860543    -0.66674946
      3      C    -0.07723852    -0.13095442    -1.78386371
      4     Cl    -0.14307522    -1.99815613    -1.53323585
      5      C     0.72115759     0.19619290    -3.07314647
      6      C     2.26271589     0.03704648    -2.97759595
      7      C     3.10245640     1.25453072    -2.45293617
      8      C     3.72056712     1.15228533    -1.02906166
      9      C     2.79856487     1.64549125     0.13279919
     10      H    -1.13168854     0.13241390    -1.89590686
     11      H     0.32853366    -0.43935641    -3.87593865
     12      H     0.47423681     1.23645829    -3.33420979
     13      H     2.49067478    -0.85783884    -2.38381630
     14      H     2.60991817    -0.18388695    -3.99456680
     15      H     3.94133283     1.38966676    -3.14764172
     16      H     2.50597142     2.17585642    -2.52414625
     17      H     3.99883391     0.10863473    -0.83182865
     18      H     4.64716500     1.74174352    -0.99148230
     19      H     2.72028787     2.74312767     0.11061525
     20      H     3.23447862     1.37983470     1.10552416

Total System Charge              0.00000

 *** GO1_GOStep11 ***

 Energy gradients wrt nuclear displacements
 ==========================================

     Atom      Cartesian (a.u./angstrom)
                 X         Y         Z
 ----------------------------------------
     1 C    -0.000016  0.000085 -0.000041
     2 C    -0.000002 -0.000016  0.000013
     3 C    -0.000063  0.000146 -0.000080
     4 Cl   -0.000098  0.000046  0.000008
     5 C     0.000007 -0.000010  0.000075
     6 C    -0.000046  0.000019 -0.000000
     7 C     0.000049 -0.000088  0.000059
     8 C    -0.000081 -0.000005  0.000018
     9 C     0.000104 -0.000042 -0.000009
    10 H     0.000018  0.000093 -0.000006
    11 H    -0.000014  0.000060 -0.000035
    12 H     0.000019  0.000047 -0.000029
    13 H    -0.000036 -0.000023  0.000006
    14 H    -0.000007 -0.000051  0.000019
    15 H     0.000026 -0.000068  0.000006
    16 H     0.000062 -0.000010 -0.000022
    17 H    -0.000006 -0.000055  0.000020
    18 H     0.000052 -0.000102  0.000001
    19 H     0.000051 -0.000014  0.000001
    20 H    -0.000020 -0.000012 -0.000006
 ----------------------------------------
 
---------------------------------------------------------
Geometry Convergence after Step  11       ** CONVERGED **
---------------------------------------------------------
current energy                               -3.97768059 Hartree
energy change                      -0.00000038     0.00020000    T
constrained gradient max            0.00009222     0.00010000    T
constrained gradient rms            0.00003307     0.00006667    T
gradient max                        0.00009222
gradient rms                        0.00003307
cart. step max                      0.00042444     0.01000000    T
cart. step rms                      0.00015879     0.00666667    T
 
Geometry optimization converged

Optimized geometry:

--------
Geometry
--------
Formula: C8H11Cl
Atoms
  Index Symbol   x (angstrom)   y (angstrom)   z (angstrom)
      1      C     1.48388510     1.05149465    -0.07589201
      2      C     0.58319224     0.49860543    -0.66674946
      3      C    -0.07723852    -0.13095442    -1.78386371
      4     Cl    -0.14307522    -1.99815613    -1.53323585
      5      C     0.72115759     0.19619290    -3.07314647
      6      C     2.26271589     0.03704648    -2.97759595
      7      C     3.10245640     1.25453072    -2.45293617
      8      C     3.72056712     1.15228533    -1.02906166
      9      C     2.79856487     1.64549125     0.13279919
     10      H    -1.13168854     0.13241390    -1.89590686
     11      H     0.32853366    -0.43935641    -3.87593865
     12      H     0.47423681     1.23645829    -3.33420979
     13      H     2.49067478    -0.85783884    -2.38381630
     14      H     2.60991817    -0.18388695    -3.99456680
     15      H     3.94133283     1.38966676    -3.14764172
     16      H     2.50597142     2.17585642    -2.52414625
     17      H     3.99883391     0.10863473    -0.83182865
     18      H     4.64716500     1.74174352    -0.99148230
     19      H     2.72028787     2.74312767     0.11061525
     20      H     3.23447862     1.37983470     1.10552416

Total System Charge              0.00000

Performing a single point calculation on the final geometry ...

 *** adf ***



 ===========================
 A T T A C H E D   F I L E S
 ===========================
  
 Restart/tmp/amstmp_c5_fragB_opt_kid0.1519982816/GO1_GOStep11.rkf*** GO1_GOStep11 ***



 ===============================
 M O D E L   P A R A M E T E R S
 ===============================
  
 DENSITY FUNCTIONAL POTENTIAL (scf)
    LDA:                               Exchange only                           == Not Default ==
    Gradient Corrections:              Becke88 LYP                             == Not Default ==

 SPIN  (restricted / unrestr.)
    Molecule:                          Restricted                               
    Fragments:                         Restricted                               

 OTHER ASPECTS
    Relativistic Corrections:          scalar (ZORA,MAPA)                       

    Nuclear Charge Density Model:      Point Charge Nuclei                      
    Core Treatment:                    Frozen Orbital(s)                        

    Hyperfine or Zeeman Interaction:   ---                                      

 Settings for Grimme D3 dispersion correction

      damping                        BJ
      s6                          1.000
      s8                          2.700
      a1                          0.430
      a2                          4.236

 Other (technical) parameters

      alpha                      14.000
      version                         4
 



 ===============
 G E O M E T R Y  ***  3D  Molecule  ***
 ===============
  

 ATOMS
 =====                            X Y Z                    CHARGE
                                (Angstrom)             Nucl     +Core       At.Mass
                       --------------------------    ----------------       -------
    1  C               1.4839    1.0515   -0.0759      6.00      6.00       12.0000
    2  C               0.5832    0.4986   -0.6667      6.00      6.00       12.0000
    3  C              -0.0772   -0.1310   -1.7839      6.00      6.00       12.0000
    4  Cl             -0.1431   -1.9982   -1.5332     17.00     17.00       34.9689
    5  C               0.7212    0.1962   -3.0731      6.00      6.00       12.0000
    6  C               2.2627    0.0370   -2.9776      6.00      6.00       12.0000
    7  C               3.1025    1.2545   -2.4529      6.00      6.00       12.0000
    8  C               3.7206    1.1523   -1.0291      6.00      6.00       12.0000
    9  C               2.7986    1.6455    0.1328      6.00      6.00       12.0000
   10  H              -1.1317    0.1324   -1.8959      1.00      1.00        1.0078
   11  H               0.3285   -0.4394   -3.8759      1.00      1.00        1.0078
   12  H               0.4742    1.2365   -3.3342      1.00      1.00        1.0078
   13  H               2.4907   -0.8578   -2.3838      1.00      1.00        1.0078
   14  H               2.6099   -0.1839   -3.9946      1.00      1.00        1.0078
   15  H               3.9413    1.3897   -3.1476      1.00      1.00        1.0078
   16  H               2.5060    2.1759   -2.5241      1.00      1.00        1.0078
   17  H               3.9988    0.1086   -0.8318      1.00      1.00        1.0078
   18  H               4.6472    1.7417   -0.9915      1.00      1.00        1.0078
   19  H               2.7203    2.7431    0.1106      1.00      1.00        1.0078
   20  H               3.2345    1.3798    1.1055      1.00      1.00        1.0078


 FRAGMENTS
 =========                                     Atoms in this Fragment     Cart. coord.s (Angstrom)
                                               -------------------------------------------------------
    1  C                                                 1  C            1.4839    1.0515   -0.0759
    2  C                                                 2  C            0.5832    0.4986   -0.6667
    3  C                                                 3  C           -0.0772   -0.1310   -1.7839
    4  C                                                 5  C            0.7212    0.1962   -3.0731
    5  C                                                 6  C            2.2627    0.0370   -2.9776
    6  C                                                 7  C            3.1025    1.2545   -2.4529
    7  C                                                 8  C            3.7206    1.1523   -1.0291
    8  C                                                 9  C            2.7986    1.6455    0.1328
    9  Cl                                                4  Cl          -0.1431   -1.9982   -1.5332
   10  H                                                10  H           -1.1317    0.1324   -1.8959
   11  H                                                11  H            0.3285   -0.4394   -3.8759
   12  H                                                12  H            0.4742    1.2365   -3.3342
   13  H                                                13  H            2.4907   -0.8578   -2.3838
   14  H                                                14  H            2.6099   -0.1839   -3.9946
   15  H                                                15  H            3.9413    1.3897   -3.1476
   16  H                                                16  H            2.5060    2.1759   -2.5241
   17  H                                                17  H            3.9988    0.1086   -0.8318
   18  H                                                18  H            4.6472    1.7417   -0.9915
   19  H                                                19  H            2.7203    2.7431    0.1106
   20  H                                                20  H            3.2345    1.3798    1.1055



 =====================================
 S Y M M E T R Y ,   E L E C T R O N S
 =====================================
  
 Symmetry: NOSYM

 Irreducible Representations, including subspecies
 -------------------------------------------------
 A


 Configuration of Valence Electrons
 ==================================
 ( determined in the SCF procedure )

 Total:   76

 Net Charge: 0 (Nuclei minus Electrons)

 Aufbau principle for MO occupations will be applied through SCF cycle no.     100
 Thereafter, the program will assign electrons to MOs that are spatially
 similar to the occupied MOs in a "reference" cycle ("KeepOrbitals").
 The reference cycle is always the PREVIOUS cycle: it will evolve with
 the SCF procedure.
 ***************************************************************************************************



                                      ****************************************
                                      *  B U I L D : (Fragments, Functions)  *
                                      ****************************************
  



 =======
 S F O s  ***  (Symmetrized Fragment Orbitals)  ***
 =======
  
 SFOs are linear combinations of (valence) Fragment Orbitals (FOs), such that the SFOs transform as the
 irreducible representations of the (molecular) symmetry group. Each SFO is therefore characterized by
 an irrep of the molecule and by a few (or only one) generating FOs.
 The SFOs constitute a symmetry-adapted basis for the Fock matrix. The MO eigenvector coefficients in
 this basis provide a direct interpretation of the MOs in terms of Frontier Orbital Theory.

 The SFOs are combined with auxiliary Core Functions (CFs) to ensure orthogonalization on the (frozen)
 Core Orbitals (COs). The Core-orthogonalized SFOs (CSFOs) constitute the true Fock basis.

 The FOs, and hence also the (C)SFOs are combinations of the elementary basis functions (BAS). The basis
 functions that participate in the description of the SFOs depend on the irrep. The indices of the
 involved functions are printed below for each irrep.
 (The complete list of primitive basis functions is printed in another section)

 Total nr. of (C)SFOs (summation over all irreps) :   363

 NOTE: a (C)SFO that is defined as a combination of more than one FO is usually NOT normalized.



                                       === A ===
 Nr. of SFOs :  363
 Cartesian basis functions that participate in this irrep (total number =   410) :
      1     2     3     4     5     6     9    12     7    10
     13     8    11    14    15    16    17    18    19    20
     21    22    23    24    25    26    27    28    29    30
     31    32    33    34    35    36    39    42    37    40
     43    38    41    44    45    46    47    48    49    50
     51    52    53    54    55    56    57    58    59    60
     61    62    63    64    65    66    69    72    67    70
     73    68    71    74    75    76    77    78    79    80
     81    82    83    84    85    86    87    88    89    90
     91    92    93    94    95    96    99   102    97   100
    103    98   101   104   105   106   107   108   109   110
    111   112   113   114   115   116   117   118   119   120
    121   122   123   124   125   126   129   132   127   130
    133   128   131   134   135   136   137   138   139   140
    141   142   143   144   145   146   147   148   149   150
    151   152   153   154   155   156   159   162   157   160
    163   158   161   164   165   166   167   168   169   170
    171   172   173   174   175   176   177   178   179   180
    181   182   183   184   185   186   189   192   187   190
    193   188   191   194   195   196   197   198   199   200
    201   202   203   204   205   206   207   208   209   210
    211   212   213   214   215   216   219   222   217   220
    223   218   221   224   225   226   227   228   229   230
    231   232   233   234   235   236   237   238   239   240
    241   242   243   244   251   252   253   245   248   254
    257   260   246   249   255   258   261   247   250   256
    259   262   263   264   265   266   267   268   269   270
    271   272   273   274   275   276   277   278   279   280
    281   282   283   284   285   286   287   288   289   290
    291   292   293   294   295   296   297   298   299   300
    301   302   303   304   305   306   307   308   309   310
    311   312   313   314   315   316   317   318   319   320
    321   322   323   324   325   326   327   328   329   330
    331   332   333   334   335   336   337   338   339   340
    341   342   343   344   345   346   347   348   349   350
    351   352   353   354   355   356   357   358   359   360
    361   362   363   364   365   366   367   368   369   370
    371   372   373   374   375   376   377   378   379   380
    381   382   383   384   385   386   387   388   389   390
    391   392   393   394   395   396   397   398   399   400
    401   402   403   404   405   406   407   408   409   410

    SFO  (index         Fragment          Generating    Expansion in Fragment Orbitals
  indx  incl.CFs)   Occup   Orb.Energy   FragmentType  Coeff.   Orbital     on Fragment
 --------------------------------------------------------------------------------------
     1       1      2.000     -10.066 au  C             1.00      1 S               1
                        (    -273.921 eV)
     2       2      2.000      -0.501 au  C             1.00      2 S               1
                        (     -13.620 eV)
     3       3       --         0.373 au  C             1.00      3 S               1
                        (      10.158 eV)
     4       4       --         5.405 au  C             1.00      4 S               1
                        (     147.073 eV)
     5       5       --        49.848 au  C             1.00      5 S               1
                        (    1356.422 eV)
     6       6      0.667      -0.193 au  C             1.00      1 P:x             1
                        (      -5.239 eV)
     7       7       --         0.169 au  C             1.00      2 P:x             1
                        (       4.589 eV)
     8       8       --         2.013 au  C             1.00      3 P:x             1
                        (      54.789 eV)
     9       9      0.667      -0.193 au  C             1.00      1 P:y             1
                        (      -5.239 eV)
    10      10       --         0.169 au  C             1.00      2 P:y             1
                        (       4.589 eV)
    11      11       --         2.013 au  C             1.00      3 P:y             1
                        (      54.789 eV)
    12      12      0.667      -0.193 au  C             1.00      1 P:z             1
                        (      -5.239 eV)
    13      13       --         0.169 au  C             1.00      2 P:z             1
                        (       4.589 eV)
    14      14       --         2.013 au  C             1.00      3 P:z             1
                        (      54.789 eV)
    15      15       --         1.243 au  C             1.00      1 D:z2            1
                        (      33.824 eV)
    16      16       --         1.243 au  C             1.00      1 D:x2-y2         1
                        (      33.824 eV)
    17      17       --         1.243 au  C             1.00      1 D:xy            1
                        (      33.824 eV)
    18      18       --         1.243 au  C             1.00      1 D:xz            1
                        (      33.824 eV)
    19      19       --         1.243 au  C             1.00      1 D:yz            1
                        (      33.824 eV)
    20      20       --         4.016 au  C             1.00      1 F:z3            1
                        (     109.271 eV)
    21      21       --         4.016 au  C             1.00      1 F:z             1
                        (     109.271 eV)
    22      22       --         4.016 au  C             1.00      1 F:xyz           1
                        (     109.271 eV)
    23      23       --         4.016 au  C             1.00      1 F:z2x           1
                        (     109.271 eV)
    24      24       --         4.016 au  C             1.00      1 F:z2y           1
                        (     109.271 eV)
    25      25       --         4.016 au  C             1.00      1 F:x             1
                        (     109.271 eV)
    26      26       --         4.016 au  C             1.00      1 F:y             1
                        (     109.271 eV)
    27      27      2.000     -10.066 au  C             1.00      1 S               2
                        (    -273.921 eV)
    28      28      2.000      -0.501 au  C             1.00      2 S               2
                        (     -13.620 eV)
    29      29       --         0.373 au  C             1.00      3 S               2
                        (      10.158 eV)
    30      30       --         5.405 au  C             1.00      4 S               2
                        (     147.073 eV)
    31      31       --        49.848 au  C             1.00      5 S               2
                        (    1356.422 eV)
    32      32      0.667      -0.193 au  C             1.00      1 P:x             2
                        (      -5.239 eV)
    33      33       --         0.169 au  C             1.00      2 P:x             2
                        (       4.589 eV)
    34      34       --         2.013 au  C             1.00      3 P:x             2
                        (      54.789 eV)
    35      35      0.667      -0.193 au  C             1.00      1 P:y             2
                        (      -5.239 eV)
    36      36       --         0.169 au  C             1.00      2 P:y             2
                        (       4.589 eV)
    37      37       --         2.013 au  C             1.00      3 P:y             2
                        (      54.789 eV)
    38      38      0.667      -0.193 au  C             1.00      1 P:z             2
                        (      -5.239 eV)
    39      39       --         0.169 au  C             1.00      2 P:z             2
                        (       4.589 eV)
    40      40       --         2.013 au  C             1.00      3 P:z             2
                        (      54.789 eV)
    41      41       --         1.243 au  C             1.00      1 D:z2            2
                        (      33.824 eV)
    42      42       --         1.243 au  C             1.00      1 D:x2-y2         2
                        (      33.824 eV)
    43      43       --         1.243 au  C             1.00      1 D:xy            2
                        (      33.824 eV)
    44      44       --         1.243 au  C             1.00      1 D:xz            2
                        (      33.824 eV)
    45      45       --         1.243 au  C             1.00      1 D:yz            2
                        (      33.824 eV)
    46      46       --         4.016 au  C             1.00      1 F:z3            2
                        (     109.271 eV)
    47      47       --         4.016 au  C             1.00      1 F:z             2
                        (     109.271 eV)
    48      48       --         4.016 au  C             1.00      1 F:xyz           2
                        (     109.271 eV)
    49      49       --         4.016 au  C             1.00      1 F:z2x           2
                        (     109.271 eV)
    50      50       --         4.016 au  C             1.00      1 F:z2y           2
                        (     109.271 eV)
    51      51       --         4.016 au  C             1.00      1 F:x             2
                        (     109.271 eV)
    52      52       --         4.016 au  C             1.00      1 F:y             2
                        (     109.271 eV)
    53      53      2.000     -10.066 au  C             1.00      1 S               3
                        (    -273.921 eV)
    54      54      2.000      -0.501 au  C             1.00      2 S               3
                        (     -13.620 eV)
    55      55       --         0.373 au  C             1.00      3 S               3
                        (      10.158 eV)
    56      56       --         5.405 au  C             1.00      4 S               3
                        (     147.073 eV)
    57      57       --        49.848 au  C             1.00      5 S               3
                        (    1356.422 eV)
    58      58      0.667      -0.193 au  C             1.00      1 P:x             3
                        (      -5.239 eV)
    59      59       --         0.169 au  C             1.00      2 P:x             3
                        (       4.589 eV)
    60      60       --         2.013 au  C             1.00      3 P:x             3
                        (      54.789 eV)
    61      61      0.667      -0.193 au  C             1.00      1 P:y             3
                        (      -5.239 eV)
    62      62       --         0.169 au  C             1.00      2 P:y             3
                        (       4.589 eV)
    63      63       --         2.013 au  C             1.00      3 P:y             3
                        (      54.789 eV)
    64      64      0.667      -0.193 au  C             1.00      1 P:z             3
                        (      -5.239 eV)
    65      65       --         0.169 au  C             1.00      2 P:z             3
                        (       4.589 eV)
    66      66       --         2.013 au  C             1.00      3 P:z             3
                        (      54.789 eV)
    67      67       --         1.243 au  C             1.00      1 D:z2            3
                        (      33.824 eV)
    68      68       --         1.243 au  C             1.00      1 D:x2-y2         3
                        (      33.824 eV)
    69      69       --         1.243 au  C             1.00      1 D:xy            3
                        (      33.824 eV)
    70      70       --         1.243 au  C             1.00      1 D:xz            3
                        (      33.824 eV)
    71      71       --         1.243 au  C             1.00      1 D:yz            3
                        (      33.824 eV)
    72      72       --         4.016 au  C             1.00      1 F:z3            3
                        (     109.271 eV)
    73      73       --         4.016 au  C             1.00      1 F:z             3
                        (     109.271 eV)
    74      74       --         4.016 au  C             1.00      1 F:xyz           3
                        (     109.271 eV)
    75      75       --         4.016 au  C             1.00      1 F:z2x           3
                        (     109.271 eV)
    76      76       --         4.016 au  C             1.00      1 F:z2y           3
                        (     109.271 eV)
    77      77       --         4.016 au  C             1.00      1 F:x             3
                        (     109.271 eV)
    78      78       --         4.016 au  C             1.00      1 F:y             3
                        (     109.271 eV)
    79      79      2.000     -10.066 au  C             1.00      1 S               4
                        (    -273.921 eV)
    80      80      2.000      -0.501 au  C             1.00      2 S               4
                        (     -13.620 eV)
    81      81       --         0.373 au  C             1.00      3 S               4
                        (      10.158 eV)
    82      82       --         5.405 au  C             1.00      4 S               4
                        (     147.073 eV)
    83      83       --        49.848 au  C             1.00      5 S               4
                        (    1356.422 eV)
    84      84      0.667      -0.193 au  C             1.00      1 P:x             4
                        (      -5.239 eV)
    85      85       --         0.169 au  C             1.00      2 P:x             4
                        (       4.589 eV)
    86      86       --         2.013 au  C             1.00      3 P:x             4
                        (      54.789 eV)
    87      87      0.667      -0.193 au  C             1.00      1 P:y             4
                        (      -5.239 eV)
    88      88       --         0.169 au  C             1.00      2 P:y             4
                        (       4.589 eV)
    89      89       --         2.013 au  C             1.00      3 P:y             4
                        (      54.789 eV)
    90      90      0.667      -0.193 au  C             1.00      1 P:z             4
                        (      -5.239 eV)
    91      91       --         0.169 au  C             1.00      2 P:z             4
                        (       4.589 eV)
    92      92       --         2.013 au  C             1.00      3 P:z             4
                        (      54.789 eV)
    93      93       --         1.243 au  C             1.00      1 D:z2            4
                        (      33.824 eV)
    94      94       --         1.243 au  C             1.00      1 D:x2-y2         4
                        (      33.824 eV)
    95      95       --         1.243 au  C             1.00      1 D:xy            4
                        (      33.824 eV)
    96      96       --         1.243 au  C             1.00      1 D:xz            4
                        (      33.824 eV)
    97      97       --         1.243 au  C             1.00      1 D:yz            4
                        (      33.824 eV)
    98      98       --         4.016 au  C             1.00      1 F:z3            4
                        (     109.271 eV)
    99      99       --         4.016 au  C             1.00      1 F:z             4
                        (     109.271 eV)
   100     100       --         4.016 au  C             1.00      1 F:xyz           4
                        (     109.271 eV)
   101     101       --         4.016 au  C             1.00      1 F:z2x           4
                        (     109.271 eV)
   102     102       --         4.016 au  C             1.00      1 F:z2y           4
                        (     109.271 eV)
   103     103       --         4.016 au  C             1.00      1 F:x             4
                        (     109.271 eV)
   104     104       --         4.016 au  C             1.00      1 F:y             4
                        (     109.271 eV)
   105     105      2.000     -10.066 au  C             1.00      1 S               5
                        (    -273.921 eV)
   106     106      2.000      -0.501 au  C             1.00      2 S               5
                        (     -13.620 eV)
   107     107       --         0.373 au  C             1.00      3 S               5
                        (      10.158 eV)
   108     108       --         5.405 au  C             1.00      4 S               5
                        (     147.073 eV)
   109     109       --        49.848 au  C             1.00      5 S               5
                        (    1356.422 eV)
   110     110      0.667      -0.193 au  C             1.00      1 P:x             5
                        (      -5.239 eV)
   111     111       --         0.169 au  C             1.00      2 P:x             5
                        (       4.589 eV)
   112     112       --         2.013 au  C             1.00      3 P:x             5
                        (      54.789 eV)
   113     113      0.667      -0.193 au  C             1.00      1 P:y             5
                        (      -5.239 eV)
   114     114       --         0.169 au  C             1.00      2 P:y             5
                        (       4.589 eV)
   115     115       --         2.013 au  C             1.00      3 P:y             5
                        (      54.789 eV)
   116     116      0.667      -0.193 au  C             1.00      1 P:z             5
                        (      -5.239 eV)
   117     117       --         0.169 au  C             1.00      2 P:z             5
                        (       4.589 eV)
   118     118       --         2.013 au  C             1.00      3 P:z             5
                        (      54.789 eV)
   119     119       --         1.243 au  C             1.00      1 D:z2            5
                        (      33.824 eV)
   120     120       --         1.243 au  C             1.00      1 D:x2-y2         5
                        (      33.824 eV)
   121     121       --         1.243 au  C             1.00      1 D:xy            5
                        (      33.824 eV)
   122     122       --         1.243 au  C             1.00      1 D:xz            5
                        (      33.824 eV)
   123     123       --         1.243 au  C             1.00      1 D:yz            5
                        (      33.824 eV)
   124     124       --         4.016 au  C             1.00      1 F:z3            5
                        (     109.271 eV)
   125     125       --         4.016 au  C             1.00      1 F:z             5
                        (     109.271 eV)
   126     126       --         4.016 au  C             1.00      1 F:xyz           5
                        (     109.271 eV)
   127     127       --         4.016 au  C             1.00      1 F:z2x           5
                        (     109.271 eV)
   128     128       --         4.016 au  C             1.00      1 F:z2y           5
                        (     109.271 eV)
   129     129       --         4.016 au  C             1.00      1 F:x             5
                        (     109.271 eV)
   130     130       --         4.016 au  C             1.00      1 F:y             5
                        (     109.271 eV)
   131     131      2.000     -10.066 au  C             1.00      1 S               6
                        (    -273.921 eV)
   132     132      2.000      -0.501 au  C             1.00      2 S               6
                        (     -13.620 eV)
   133     133       --         0.373 au  C             1.00      3 S               6
                        (      10.158 eV)
   134     134       --         5.405 au  C             1.00      4 S               6
                        (     147.073 eV)
   135     135       --        49.848 au  C             1.00      5 S               6
                        (    1356.422 eV)
   136     136      0.667      -0.193 au  C             1.00      1 P:x             6
                        (      -5.239 eV)
   137     137       --         0.169 au  C             1.00      2 P:x             6
                        (       4.589 eV)
   138     138       --         2.013 au  C             1.00      3 P:x             6
                        (      54.789 eV)
   139     139      0.667      -0.193 au  C             1.00      1 P:y             6
                        (      -5.239 eV)
   140     140       --         0.169 au  C             1.00      2 P:y             6
                        (       4.589 eV)
   141     141       --         2.013 au  C             1.00      3 P:y             6
                        (      54.789 eV)
   142     142      0.667      -0.193 au  C             1.00      1 P:z             6
                        (      -5.239 eV)
   143     143       --         0.169 au  C             1.00      2 P:z             6
                        (       4.589 eV)
   144     144       --         2.013 au  C             1.00      3 P:z             6
                        (      54.789 eV)
   145     145       --         1.243 au  C             1.00      1 D:z2            6
                        (      33.824 eV)
   146     146       --         1.243 au  C             1.00      1 D:x2-y2         6
                        (      33.824 eV)
   147     147       --         1.243 au  C             1.00      1 D:xy            6
                        (      33.824 eV)
   148     148       --         1.243 au  C             1.00      1 D:xz            6
                        (      33.824 eV)
   149     149       --         1.243 au  C             1.00      1 D:yz            6
                        (      33.824 eV)
   150     150       --         4.016 au  C             1.00      1 F:z3            6
                        (     109.271 eV)
   151     151       --         4.016 au  C             1.00      1 F:z             6
                        (     109.271 eV)
   152     152       --         4.016 au  C             1.00      1 F:xyz           6
                        (     109.271 eV)
   153     153       --         4.016 au  C             1.00      1 F:z2x           6
                        (     109.271 eV)
   154     154       --         4.016 au  C             1.00      1 F:z2y           6
                        (     109.271 eV)
   155     155       --         4.016 au  C             1.00      1 F:x             6
                        (     109.271 eV)
   156     156       --         4.016 au  C             1.00      1 F:y             6
                        (     109.271 eV)
   157     157      2.000     -10.066 au  C             1.00      1 S               7
                        (    -273.921 eV)
   158     158      2.000      -0.501 au  C             1.00      2 S               7
                        (     -13.620 eV)
   159     159       --         0.373 au  C             1.00      3 S               7
                        (      10.158 eV)
   160     160       --         5.405 au  C             1.00      4 S               7
                        (     147.073 eV)
   161     161       --        49.848 au  C             1.00      5 S               7
                        (    1356.422 eV)
   162     162      0.667      -0.193 au  C             1.00      1 P:x             7
                        (      -5.239 eV)
   163     163       --         0.169 au  C             1.00      2 P:x             7
                        (       4.589 eV)
   164     164       --         2.013 au  C             1.00      3 P:x             7
                        (      54.789 eV)
   165     165      0.667      -0.193 au  C             1.00      1 P:y             7
                        (      -5.239 eV)
   166     166       --         0.169 au  C             1.00      2 P:y             7
                        (       4.589 eV)
   167     167       --         2.013 au  C             1.00      3 P:y             7
                        (      54.789 eV)
   168     168      0.667      -0.193 au  C             1.00      1 P:z             7
                        (      -5.239 eV)
   169     169       --         0.169 au  C             1.00      2 P:z             7
                        (       4.589 eV)
   170     170       --         2.013 au  C             1.00      3 P:z             7
                        (      54.789 eV)
   171     171       --         1.243 au  C             1.00      1 D:z2            7
                        (      33.824 eV)
   172     172       --         1.243 au  C             1.00      1 D:x2-y2         7
                        (      33.824 eV)
   173     173       --         1.243 au  C             1.00      1 D:xy            7
                        (      33.824 eV)
   174     174       --         1.243 au  C             1.00      1 D:xz            7
                        (      33.824 eV)
   175     175       --         1.243 au  C             1.00      1 D:yz            7
                        (      33.824 eV)
   176     176       --         4.016 au  C             1.00      1 F:z3            7
                        (     109.271 eV)
   177     177       --         4.016 au  C             1.00      1 F:z             7
                        (     109.271 eV)
   178     178       --         4.016 au  C             1.00      1 F:xyz           7
                        (     109.271 eV)
   179     179       --         4.016 au  C             1.00      1 F:z2x           7
                        (     109.271 eV)
   180     180       --         4.016 au  C             1.00      1 F:z2y           7
                        (     109.271 eV)
   181     181       --         4.016 au  C             1.00      1 F:x             7
                        (     109.271 eV)
   182     182       --         4.016 au  C             1.00      1 F:y             7
                        (     109.271 eV)
   183     183      2.000     -10.066 au  C             1.00      1 S               8
                        (    -273.921 eV)
   184     184      2.000      -0.501 au  C             1.00      2 S               8
                        (     -13.620 eV)
   185     185       --         0.373 au  C             1.00      3 S               8
                        (      10.158 eV)
   186     186       --         5.405 au  C             1.00      4 S               8
                        (     147.073 eV)
   187     187       --        49.848 au  C             1.00      5 S               8
                        (    1356.422 eV)
   188     188      0.667      -0.193 au  C             1.00      1 P:x             8
                        (      -5.239 eV)
   189     189       --         0.169 au  C             1.00      2 P:x             8
                        (       4.589 eV)
   190     190       --         2.013 au  C             1.00      3 P:x             8
                        (      54.789 eV)
   191     191      0.667      -0.193 au  C             1.00      1 P:y             8
                        (      -5.239 eV)
   192     192       --         0.169 au  C             1.00      2 P:y             8
                        (       4.589 eV)
   193     193       --         2.013 au  C             1.00      3 P:y             8
                        (      54.789 eV)
   194     194      0.667      -0.193 au  C             1.00      1 P:z             8
                        (      -5.239 eV)
   195     195       --         0.169 au  C             1.00      2 P:z             8
                        (       4.589 eV)
   196     196       --         2.013 au  C             1.00      3 P:z             8
                        (      54.789 eV)
   197     197       --         1.243 au  C             1.00      1 D:z2            8
                        (      33.824 eV)
   198     198       --         1.243 au  C             1.00      1 D:x2-y2         8
                        (      33.824 eV)
   199     199       --         1.243 au  C             1.00      1 D:xy            8
                        (      33.824 eV)
   200     200       --         1.243 au  C             1.00      1 D:xz            8
                        (      33.824 eV)
   201     201       --         1.243 au  C             1.00      1 D:yz            8
                        (      33.824 eV)
   202     202       --         4.016 au  C             1.00      1 F:z3            8
                        (     109.271 eV)
   203     203       --         4.016 au  C             1.00      1 F:z             8
                        (     109.271 eV)
   204     204       --         4.016 au  C             1.00      1 F:xyz           8
                        (     109.271 eV)
   205     205       --         4.016 au  C             1.00      1 F:z2x           8
                        (     109.271 eV)
   206     206       --         4.016 au  C             1.00      1 F:z2y           8
                        (     109.271 eV)
   207     207       --         4.016 au  C             1.00      1 F:x             8
                        (     109.271 eV)
   208     208       --         4.016 au  C             1.00      1 F:y             8
                        (     109.271 eV)
   209     209      2.000    -101.116 au  Cl            1.00      1 S               9
                        (   -2751.516 eV)
   210     210      2.000      -9.276 au  Cl            1.00      2 S               9
                        (    -252.419 eV)
   211     211      2.000      -0.754 au  Cl            1.00      3 S               9
                        (     -20.523 eV)
   212     212       --         0.194 au  Cl            1.00      4 S               9
[...]
                                    2.22%     2 S               2.394  0.00    19 H
                                    2.20%     2 P:y             4.589  0.00     5 C
                                    2.16%     1 P:x            -5.239  0.67     1 C
                                   -1.86%     2 P:y             4.589  0.00     6 C
                                    1.75%     1 P:x            -5.239  0.67     2 C
                                    1.69%     1 S              -6.532  1.00    16 H
                                    1.42%     2 P:z             4.589  0.00     4 C
                                    1.41%     2 P:y             4.589  0.00     3 C
                                    1.34%     3 S              40.869  0.00    15 H
                                    1.03%     3 S              40.869  0.00    16 H
       3.774  0.00    55 A         12.94%     1 P:z            -5.239  0.67     4 C
                                   10.12%     2 P:x             4.589  0.00     8 C
                                    7.07%     1 P:z            -5.239  0.67     7 C
                                    7.03%     1 P:x            -5.239  0.67     4 C
                                   -5.76%     3 S              10.158  0.00     1 C
                                    5.72%     1 P:z            -5.239  0.67     3 C
                                    5.21%     2 P:z             4.589  0.00     7 C
                                    5.21%     2 P:x             4.589  0.00     1 C
                                    5.16%     1 P:x            -5.239  0.67     3 C
                                    5.16%     2 S             -13.620  2.00     8 C
                                    5.09%     1 S              -6.532  1.00    12 H
                                   -5.09%     3 S              10.158  0.00     8 C
                                    5.04%     2 P:z             4.589  0.00     2 C
                                    4.89%     2 P:y             4.589  0.00     3 C
                                    4.39%     2 S             -13.620  2.00     1 C
                                   -4.09%     3 S              10.158  0.00     3 C
                                    3.96%     1 S              -6.532  1.00    17 H
                                   -3.85%     2 P:z             4.589  0.00     8 C
                                    3.83%     1 P:y            -5.239  0.67     4 C
                                   -3.75%     2 P:x             4.589  0.00     3 C
                                   -3.46%     2 P:z             4.589  0.00     3 C
                                    3.41%     1 P:y            -5.239  0.67     7 C
                                    3.31%     2 P:x             4.589  0.00     7 C
                                    3.10%     1 P:z            -5.239  0.67     8 C
                                    3.03%     2 S             -13.620  2.00     3 C
                                    2.96%     1 P:x            -5.239  0.67     7 C
                                    2.84%     2 P:y             4.589  0.00     2 C
                                   -2.69%     4 S               5.292  0.00     9 Cl
                                    2.63%     2 S               2.394  0.00    16 H
                                    2.60%     1 P:z            -5.239  0.67     2 C
                                   -2.42%     2 S               2.394  0.00    12 H
                                    2.34%     2 P:z             4.589  0.00     4 C
                                    2.17%     1 P:x            -5.239  0.67     1 C
                                    1.93%     3 P:y             6.147  0.00     9 Cl
                                    1.83%     2 P:y             4.589  0.00     6 C
                                    1.71%     1 P:x            -5.239  0.67     8 C
                                    1.64%     2 S               2.394  0.00    13 H
                                    1.61%     1 P:x            -5.239  0.67     5 C
                                    1.60%     1 P:y            -5.239  0.67     3 C
                                   -1.55%     2 S               2.394  0.00    17 H
                                   -1.33%     2 S               2.394  0.00    10 H
                                    1.30%     2 P:x             4.589  0.00     5 C
                                   -1.30%     2 P:x             4.589  0.00     4 C
                                   -1.05%     2 P:y             4.589  0.00     8 C

 Energy gradients wrt nuclear displacements
 ==========================================

     Atom      Cartesian (a.u./angstrom)
                 X         Y         Z
 ----------------------------------------
     1 C    -0.000016  0.000085 -0.000041
     2 C    -0.000002 -0.000016  0.000013
     3 C    -0.000063  0.000146 -0.000080
     4 Cl   -0.000098  0.000046  0.000008
     5 C     0.000007 -0.000010  0.000075
     6 C    -0.000046  0.000019 -0.000000
     7 C     0.000049 -0.000088  0.000059
     8 C    -0.000081 -0.000005  0.000018
     9 C     0.000104 -0.000042 -0.000009
    10 H     0.000018  0.000093 -0.000006
    11 H    -0.000014  0.000060 -0.000035
    12 H     0.000019  0.000047 -0.000029
    13 H    -0.000036 -0.000023  0.000006
    14 H    -0.000007 -0.000051  0.000019
    15 H     0.000026 -0.000068  0.000006
    16 H     0.000062 -0.000010 -0.000022
    17 H    -0.000006 -0.000055  0.000020
    18 H     0.000052 -0.000102  0.000001
    19 H     0.000051 -0.000014  0.000001
    20 H    -0.000020 -0.000012 -0.000006
 ----------------------------------------



 =======================================================================
 Electrostatic potential at the Nuclei due to electrons and other nuclei
 =======================================================================
  
         Atom                  Potential
         ----                  ---------
     1)   C                  14.79698391
     2)   C                  14.80267495
     3)   C                  14.70581579
     4)   Cl                 64.88434518
     5)   C                  14.77133503
     6)   C                  14.78215613
     7)   C                  14.78081517
     8)   C                  14.77528656
     9)   C                  14.75533336
    10)   H                   1.08782917
    11)   H                   1.11262528
    12)   H                   1.10644511
    13)   H                   1.12225726
    14)   H                   1.12464096
    15)   H                   1.12424521
    16)   H                   1.11937557
    17)   H                   1.11836038
    18)   H                   1.11675102
    19)   H                   1.09788409
    20)   H                   1.09880106
 Mulliken charges used for AMS results%charges...


    =====================
     CALCULATION RESULTS
    =====================

Energy (hartree)            -3.97768059

Gradients (hartree/bohr)
  Index   Atom            d/dx            d/dy            d/dz
      1      C   -0.0000084100    0.0000448083   -0.0000218600
      2      C   -0.0000012326   -0.0000083028    0.0000070701
      3      C   -0.0000331508    0.0000771692   -0.0000421663
      4     Cl   -0.0000516567    0.0000243006    0.0000043663
      5      C    0.0000039235   -0.0000054744    0.0000398508
      6      C   -0.0000242733    0.0000102013   -0.0000000343
      7      C    0.0000258054   -0.0000466618    0.0000314742
      8      C   -0.0000429465   -0.0000026688    0.0000094800
      9      C    0.0000549172   -0.0000223000   -0.0000049810
     10      H    0.0000096782    0.0000493243   -0.0000030798
     11      H   -0.0000072740    0.0000320077   -0.0000186052
     12      H    0.0000098279    0.0000247163   -0.0000151448
     13      H   -0.0000187940   -0.0000124315    0.0000033875
     14      H   -0.0000039530   -0.0000270268    0.0000098713
     15      H    0.0000137742   -0.0000357784    0.0000033093
     16      H    0.0000329931   -0.0000052063   -0.0000116163
     17      H   -0.0000030596   -0.0000292962    0.0000106935
     18      H    0.0000277323   -0.0000540042    0.0000003053
     19      H    0.0000267764   -0.0000072080    0.0000007781
     20      H   -0.0000106776   -0.0000061685   -0.0000030987


--------------
Atomic charges
--------------
  Index   Atom    Charge
      1      C   -0.0124
      2      C   -0.0129
      3      C    0.2351
      4     Cl   -0.2146
      5      C    0.4388
      6      C    0.4267
      7      C    0.4168
      8      C    0.4280
      9      C    0.4143
     10      H   -0.1362
     11      H   -0.1889
     12      H   -0.2085
     13      H   -0.1912
     14      H   -0.2027
     15      H   -0.2022
     16      H   -0.2088
     17      H   -0.2013
     18      H   -0.2071
     19      H   -0.1859
     20      H   -0.1869


Dipole moment vector    (Debye):     1.73768049    2.39756607   -1.12153522
              magnitude (Debye):     3.16633823


-----------------------
Molecular orbitals info
-----------------------
n orbitals:              363
n spin:                    1

Note: only printing virtual orbitals with
      energy smaller than HOMO + 100. eV

HOMO (eV):              -6.2169
LUMO (eV):              -1.4450
HOMO-LUMO gap (eV):      4.7719

   Index   Energy (eV)    Occupation
     238       93.3776         0.000       
     237       92.6966         0.000       
     236       92.1363         0.000       
     235       91.4605         0.000       
     234       90.9078         0.000       
     233       90.0562         0.000       
     232       89.4969         0.000       
     231       88.0501         0.000       
     230       87.6425         0.000       
     229       86.9593         0.000       
     228       86.1234         0.000       
     227       84.8993         0.000       
     226       84.3692         0.000       
     225       84.0305         0.000       
     224       83.5702         0.000       
     223       82.8587         0.000       
     222       82.4366         0.000       
     221       81.9644         0.000       
     220       81.5613         0.000       
     219       80.5936         0.000       
     218       80.1995         0.000       
     217       79.4051         0.000       
     216       79.3005         0.000       
     215       79.0938         0.000       
     214       78.6340         0.000       
     213       78.0856         0.000       
     212       77.8624         0.000       
     211       77.1463         0.000       
     210       76.6419         0.000       
     209       76.0822         0.000       
     208       75.9118         0.000       
     207       75.0788         0.000       
     206       74.7710         0.000       
     205       74.2901         0.000       
     204       73.5516         0.000       
     203       72.7987         0.000       
     202       72.0248         0.000       
     201       71.7919         0.000       
     200       70.7680         0.000       
     199       70.5307         0.000       
     198       69.0688         0.000       
     197       68.1821         0.000       
     196       66.8126         0.000       
     195       66.6176         0.000       
     194       66.4323         0.000       
     193       66.1399         0.000       
     192       64.9633         0.000       
     191       64.0727         0.000       
     190       63.5466         0.000       
     189       63.1643         0.000       
     188       62.8681         0.000       
     187       61.4273         0.000       
     186       61.2706         0.000       
     185       60.4597         0.000       
     184       59.5598         0.000       
     183       58.8826         0.000       
     182       58.3582         0.000       
     181       57.9215         0.000       
     180       57.5833         0.000       
     179       57.3125         0.000       
     178       56.6355         0.000       
     177       55.4104         0.000       
     176       55.0571         0.000       
     175       54.5128         0.000       
     174       53.8523         0.000       
     173       53.7744         0.000       
     172       52.3417         0.000       
     171       51.6652         0.000       
     170       51.5392         0.000       
     169       51.3857         0.000       
     168       49.6649         0.000       
     167       49.2264         0.000       
     166       48.9164         0.000       
     165       48.0970         0.000       
     164       47.4508         0.000       
     163       47.3281         0.000       
     162       46.9320         0.000       
     161       46.1993         0.000       
     160       45.7526         0.000       
     159       44.6498         0.000       
     158       43.9028         0.000       
     157       43.0185         0.000       
     156       42.3741         0.000       
     155       41.8495         0.000       
     154       41.1032         0.000       
     153       40.5055         0.000       
     152       40.3361         0.000       
     151       40.1143         0.000       
     150       39.7321         0.000       
     149       39.0411         0.000       
     148       38.8401         0.000       
     147       37.8259         0.000       
     146       37.5337         0.000       
     145       37.0524         0.000       
     144       36.9340         0.000       
     143       36.4955         0.000       
     142       36.3512         0.000       
     141       36.0232         0.000       
     140       35.5055         0.000       
     139       35.4584         0.000       
     138       35.0487         0.000       
     137       34.8730         0.000       
     136       34.5277         0.000       
     135       34.1984         0.000       
     134       34.0026         0.000       
     133       33.5255         0.000       
     132       33.2969         0.000       
     131       33.1446         0.000       
     130       32.7555         0.000       
     129       32.3100         0.000       
     128       32.0935         0.000       
     127       31.7794         0.000       
     126       31.6128         0.000       
     125       30.9718         0.000       
     124       30.7636         0.000       
     123       30.6056         0.000       
     122       29.9282         0.000       
     121       29.7039         0.000       
     120       29.0535         0.000       
     119       28.4791         0.000       
     118       27.8131         0.000       
     117       27.6337         0.000       
     116       27.2339         0.000       
     115       26.8534         0.000       
     114       26.2407         0.000       
     113       25.5217         0.000       
     112       24.7528         0.000       
     111       24.6215         0.000       
     110       24.2400         0.000       
     109       23.8104         0.000       
     108       22.6294         0.000       
     107       21.5928         0.000       
     106       21.1306         0.000       
     105       20.8298         0.000       
     104       20.5532         0.000       
     103       18.6101         0.000       
     102       18.2458         0.000       
     101       17.6717         0.000       
     100       16.9145         0.000       
      99       16.8394         0.000       
      98       16.1318         0.000       
      97       15.3658         0.000       
      96       14.3576         0.000       
      95       14.0742         0.000       
      94       14.0338         0.000       
      93       13.5806         0.000       
      92       12.7499         0.000       
      91       12.4818         0.000       
      90       12.2849         0.000       
      89       12.2191         0.000       
      88       12.0150         0.000       
      87       11.8521         0.000       
      86       11.3626         0.000       
      85       11.1502         0.000       
      84       11.0453         0.000       
      83       10.7072         0.000       
      82       10.3938         0.000       
      81       10.3312         0.000       
      80       10.0160         0.000       
      79        9.7592         0.000       
      78        9.4855         0.000       
      77        9.3987         0.000       
      76        9.0392         0.000       
      75        8.8737         0.000       
      74        8.7360         0.000       
      73        8.3954         0.000       
      72        8.2853         0.000       
      71        8.2330         0.000       
      70        7.9668         0.000       
      69        7.6437         0.000       
      68        7.3295         0.000       
      67        6.8129         0.000       
      66        6.4044         0.000       
      65        6.0530         0.000       
      64        5.9231         0.000       
      63        5.7404         0.000       
      62        5.2767         0.000       
      61        5.2494         0.000       
      60        4.9804         0.000       
      59        4.8251         0.000       
      58        4.5136         0.000       
      57        4.4297         0.000       
      56        4.1490         0.000       
      55        3.7737         0.000       
      54        3.2996         0.000       
      53        2.7953         0.000       
      52        2.5107         0.000       
      51        2.1929         0.000       
      50        1.9241         0.000       
      49        1.7941         0.000       
      48        1.4254         0.000       
      47        1.3085         0.000       
      46        1.1032         0.000       
      45        0.9586         0.000       
      44        0.3419         0.000       
      43        0.2272         0.000       
      42       -0.0675         0.000       
      41       -0.3350         0.000       
      40       -0.7898         0.000       
      39       -1.4450         0.000 < LUMO
      38       -6.2169         2.000 < HOMO
      37       -6.3582         2.000       
      36       -6.8946         2.000       
      35       -7.0009         2.000       
      34       -7.9072         2.000       
      33       -7.9458         2.000       
      32       -8.1460         2.000       
      31       -8.7750         2.000       
      30       -9.4150         2.000       
      29       -9.5782         2.000       
      28       -9.7366         2.000       
      27      -10.5539         2.000       
      26      -10.7040         2.000       
      25      -11.1700         2.000       
      24      -11.4081         2.000       
      23      -11.9782         2.000       
      22      -12.3737         2.000       
      21      -14.2604         2.000       
      20      -14.7801         2.000       
      19      -16.7023         2.000       
      18      -17.0559         2.000       
      17      -18.7485         2.000       
      16      -19.1601         2.000       
      15      -20.2149         2.000       
      14      -21.3014         2.000       
      13     -189.6691         2.000       
      12     -189.6709         2.000       
      11     -189.9580         2.000       
      10     -250.7126         2.000       
       9     -269.8177         2.000       
       8     -269.9990         2.000       
       7     -270.0663         2.000       
       6     -270.1058         2.000       
       5     -270.2769         2.000       
       4     -270.4065         2.000       
       3     -270.7851         2.000       
       2     -272.1755         2.000       
       1    -2749.9793         2.000       

AMS application finished. Exiting.
NORMAL TERMINATION
     Total cpu time:     906.46
  Total system time:       5.21
 Total elapsed time:     916.05
NORMAL TERMINATION
