18
Coordinates from ORCA-job ts_scan Relaxed Surface Scan Step 1 E -72.247772897997
  C      -0.513735      0.155156     -1.044002
  C      -0.675673     -0.572857      0.060387
  O      -1.765613     -0.616007      0.835090
  C      -2.905046      0.080219      0.396448
  O       0.241541     -1.376231      0.616433
  C       1.601505     -1.155894      0.262500
  C       2.024398      0.201432      0.706654
  C       2.130151      1.227780     -0.116995
  H      -1.310023      0.775920     -1.417641
  H       0.368329      0.067618     -1.644739
  H      -3.684699     -0.125510      1.122618
  H      -3.218310     -0.268486     -0.587898
  H      -2.716135      1.153489      0.360297
  H       1.742854     -1.295667     -0.810043
  H       2.147803     -1.940542      0.779347
  H       2.123191      0.347111      1.776109
  H       2.370827      2.216540      0.252992
  H       2.038638      1.125929     -1.187546
>
18
Coordinates from ORCA-job ts_scan Relaxed Surface Scan Step 2 E -72.245002910230
  C      -0.483448      0.130240     -1.066905
  C      -0.653078     -0.594066      0.038232
  O      -1.728403     -0.598539      0.834345
  C      -2.856957      0.121999      0.406903
  O       0.254011     -1.418949      0.578381
  C       1.621750     -1.175992      0.258279
  C       1.996819      0.190482      0.713786
  C       2.017378      1.232854     -0.097311
  H      -1.262778      0.777401     -1.431554
  H       0.375989     -0.008262     -1.690911
  H      -3.631648     -0.060732      1.144459
  H      -3.191419     -0.224360     -0.571301
  H      -2.643401      1.190322      0.361829
  H       1.791212     -1.313398     -0.810360
  H       2.167048     -1.951078      0.789729
  H       2.101194      0.329810      1.783419
  H       2.200059      2.229100      0.286412
  H       1.925671      1.143165     -1.167419
>
18
Coordinates from ORCA-job ts_scan Relaxed Surface Scan Step 3 E -72.241545378559
  C      -0.453872      0.121831     -1.077749
  C      -0.634037     -0.611001      0.019675
  O      -1.696883     -0.589651      0.832398
  C      -2.815777      0.153373      0.417826
  O       0.264223     -1.456715      0.540971
  C       1.639418     -1.192400      0.256272
  C       1.967416      0.182806      0.717532
  C       1.922350      1.226902     -0.091655
  H      -1.217109      0.794565     -1.430501
  H       0.384358     -0.055210     -1.720858
  H      -3.587896     -0.018898      1.160601
  H      -3.163805     -0.181620     -0.559606
  H      -2.583370      1.217932      0.376512
  H       1.836974     -1.328708     -0.807698
  H       2.181972     -1.957780      0.803801
  H       2.055411      0.325806      1.788011
  H       2.045494      2.230774      0.296883
  H       1.855135      1.137992     -1.162402
>
18
Coordinates from ORCA-job ts_scan Relaxed Surface Scan Step 4 E -72.237297188823
  C      -0.425578      0.120921     -1.085377
  C      -0.616457     -0.626411      0.000347
  O      -1.666576     -0.584906      0.829187
  C      -2.776153      0.180763      0.430701
  O       0.274347     -1.491025      0.500636
  C       1.657639     -1.206036      0.255799
  C       1.937093      0.176468      0.721405
  C       1.834688      1.214278     -0.092519
  H      -1.173953      0.817390     -1.424218
  H       0.390293     -0.088184     -1.747662
  H      -3.545451      0.014547      1.177798
  H      -3.136997     -0.138695     -0.547286
  H      -2.526323      1.241689      0.397762
  H       1.885431     -1.340919     -0.802325
  H       2.193701     -1.962669      0.821066
  H       1.992165      0.326170      1.793023
  H       1.890743      2.224668      0.295497
  H       1.811388      1.121951     -1.163822
>
18
Coordinates from ORCA-job ts_scan Relaxed Surface Scan Step 5 E -72.232238520216
  C      -0.399314      0.126540     -1.092284
  C      -0.600101     -0.640589     -0.021750
  O      -1.635874     -0.582573      0.824697
  C      -2.737024      0.205369      0.446242
  O       0.284548     -1.522872      0.454084
  C       1.677374     -1.216793      0.257910
  C       1.906232      0.171124      0.727191
  C       1.752614      1.195254     -0.098777
  H      -1.133800      0.845880     -1.413951
  H       0.391616     -0.110289     -1.775772
  H      -3.502548      0.041281      1.197698
  H      -3.110796     -0.095257     -0.532853
  H      -2.471286      1.262752      0.425216
  H       1.940045     -1.349209     -0.792424
  H       2.201654     -1.966178      0.842988
  H       1.912381      0.328649      1.798965
  H       1.733179      2.210286      0.281311
  H       1.791100      1.096624     -1.168478
>
18
Coordinates from ORCA-job ts_scan Relaxed Surface Scan Step 6 E -72.226391957628
  C      -0.375393      0.137226     -1.100614
  C      -0.584599     -0.654282     -0.047968
  O      -1.604041     -0.582764      0.817840
  C      -2.697086      0.228185      0.464529
  O       0.295163     -1.552142      0.399469
  C       1.699053     -1.224336      0.263578
  C       1.875181      0.166691      0.735714
  C       1.673785      1.170630     -0.109178
  H      -1.098361      0.876991     -1.402161
  H       0.387507     -0.122724     -1.807908
  H      -3.457008      0.063823      1.221614
  H      -3.085915     -0.050467     -0.515179
  H      -2.415432      1.281646      0.457784
  H       2.002201     -1.353841     -0.776102
  H       2.203954     -1.968530      0.871289
  H       1.819800      0.330974      1.804987
  H       1.572248      2.186745      0.254992
  H       1.788944      1.066174     -1.172675
>
18
Coordinates from ORCA-job ts_scan Relaxed Surface Scan Step 7 E -72.219913188969
  C      -0.354265      0.152738     -1.112671
  C      -0.569803     -0.668766     -0.080958
  O      -1.569696     -0.585832      0.807020
  C      -2.654704      0.249550      0.485954
  O       0.305995     -1.580208      0.331817
  C       1.722821     -1.228306      0.274744
  C       1.842643      0.163310      0.747595
  C       1.596251      1.140831     -0.123148
  H      -1.068842      0.910472     -1.389498
  H       0.375017     -0.125993     -1.848667
  H      -3.406006      0.082887      1.251107
  H      -3.062576     -0.003592     -0.492879
  H      -2.356236      1.298327      0.495398
  H       2.075286     -1.356212     -0.749187
  H       2.197220     -1.968864      0.910149
  H       1.716810      0.332529      1.810113
  H       1.411279      2.153531      0.216800
  H       1.798806      1.033597     -1.173679
>
18
Coordinates from ORCA-job ts_scan Relaxed Surface Scan Step 8 E -72.213082797365
  C      -0.335667      0.172129     -1.129130
  C      -0.556566     -0.686674     -0.122928
  O      -1.533130     -0.594669      0.790163
  C      -2.608494      0.268638      0.510841
  O       0.315788     -1.609651      0.246264
  C       1.746887     -1.228109      0.293744
  C       1.805813      0.161507      0.761348
  C       1.519187      1.107593     -0.142001
  H      -1.044710      0.945837     -1.375589
  H       0.353209     -0.120207     -1.899224
  H      -3.348338      0.096623      1.285906
  H      -3.039745      0.047751     -0.465691
  H      -2.290529      1.311200      0.540863
  H       2.158872     -1.358687     -0.706677
  H       2.176306     -1.965034      0.963587
  H       1.606839      0.334863      1.812061
  H       1.260068      2.113362      0.168237
  H       1.814212      1.003526     -1.171763
>
18
Coordinates from ORCA-job ts_scan Relaxed Surface Scan Step 9 E -72.206420233928
  C      -0.322526      0.192871     -1.163870
  C      -0.545087     -0.719542     -0.194263
  O      -1.486013     -0.622425      0.755083
  C      -2.540817      0.286878      0.548395
  O       0.325703     -1.651868      0.105657
  C       1.770416     -1.220169      0.331254
  C       1.744751      0.162608      0.780709
  C       1.431327      1.071426     -0.167807
  H      -1.030772      0.979885     -1.369060
  H       0.317388     -0.102374     -1.975809
  H      -3.257648      0.110188      1.343725
  H      -3.015802      0.117884     -0.418036
  H      -2.186159      1.316235      0.605276
  H       2.269785     -1.360197     -0.625439
  H       2.119986     -1.951154      1.050882
  H       1.461323      0.342262      1.810921
  H       1.110864      2.069723      0.106119
  H       1.833280      0.977768     -1.163724
>
18
Coordinates from ORCA-job ts_scan Relaxed Surface Scan Step 10 E -72.243755800619
  C      -0.502233      0.553018     -1.379274
  C      -0.752723     -0.860145     -1.036408
  O      -1.448375     -1.149244      0.076287
  C      -2.041699     -0.138755      0.864837
  O      -0.307635     -1.768386     -1.685133
  C       1.723962     -0.759123      1.259301
  C       1.461399      0.453979      0.787558
  C       1.449669      0.776577     -0.637587
  H      -1.100826      1.322825     -0.914234
  H      -0.357082      0.686940     -2.442850
  H      -2.522761     -0.651572      1.691706
  H      -2.796151      0.409667      0.302513
  H      -1.295733      0.548030      1.259189
  H       1.951251     -1.583279      0.594478
  H       1.710519     -0.964421      2.320912
  H       1.226362      1.256262      1.478681
  H       1.656628      1.807313     -0.897773
  H       1.945428      0.060312     -1.282190
>
18
Coordinates from ORCA-job ts_scan Relaxed Surface Scan Step 11 E -72.256491183853
  C      -0.457267      0.574863     -1.338965
  C      -0.769084     -0.847971     -1.063080
  O      -1.491464     -1.163206      0.023756
  C      -2.053918     -0.172048      0.859260
  O      -0.353012     -1.737632     -1.753341
  C       1.740208     -0.716886      1.292526
  C       1.457194      0.469773      0.771725
  C       1.421353      0.735327     -0.671853
  H      -1.039079      1.334978     -0.836195
  H      -0.358209      0.747354     -2.403224
  H      -2.566797     -0.708649      1.651126
  H      -2.777550      0.436246      0.318625
  H      -1.285664      0.459813      1.299387
  H       1.971846     -1.566477      0.661860
  H       1.743173     -0.876034      2.362229
  H       1.221968      1.298664      1.431232
  H       1.684274      1.746291     -0.962189
  H       1.912028     -0.014408     -1.282869
>
18
Coordinates from ORCA-job ts_scan Relaxed Surface Scan Step 12 E -72.269387253196
  C      -0.410281      0.582474     -1.300771
  C      -0.772274     -0.842549     -1.066470
  O      -1.530629     -1.165920     -0.008255
  C      -2.074404     -0.185223      0.852322
  O      -0.367831     -1.722632     -1.774139
  C       1.763929     -0.692156      1.301404
  C       1.451739      0.475023      0.756504
  C       1.387020      0.709542     -0.697809
  H      -0.985604      1.335312     -0.778068
  H      -0.353396      0.777073     -2.365292
  H      -2.624407     -0.731424      1.612015
  H      -2.762991      0.469537      0.320492
  H      -1.292587      0.399324      1.331939
  H       2.004270     -1.552367      0.688447
  H       1.784525     -0.825406      2.374550
  H       1.210619      1.314817      1.400501
  H       1.687147      1.707882     -0.999816
  H       1.885156     -0.053308     -1.287543
