
 *******************************************************************************
 *                                                                             *
 *  --------------------------------                                           *
 *   Amsterdam Modeling Suite (AMS)              2026.103                      *
 *  --------------------------------                                           *
 *                                               r260501 2026-05-01 873454b5   *
 *                                                                             *
 *                                                                             *
 *                              =================                              *
 *                              |               |                              *
 *                              |     A M S     |                              *
 *                              |               |                              *
 *                              =================                              *
 *                                                                             *
 *                                                                             *
 *   Online information and documentation:  https://www.scm.com/support/       *
 *   E-mail:  support@scm.com   info@scm.com                                   *
 *                                                                             *
 *   Scientific publications using AMS results must be properly referenced     *
 *   See the User Manuals (or the web site) for recommended citations          *
 *   The terms and conditions of the End User License Agreement apply to       *
 *   the use of AMS, https://www.scm.com/license-terms/                        *
 *                                                                             *
 **********************  x86_64_linux_intel / intelmpi  ************************
 
 Licensed to: Jong-June Jeon / University of Seoul 2026-06-02 13:44:15
 SCM User ID: u30731
  
 AMS 2026.103  RunTime: Jun03-2026 21:59:05  ShM Nodes: 1  Procs: 1

 AMS jobname: c5_fragB_opt
 AMS jobid  : 1172723347

 Start   directory: /gpfs/home1/yeseo1ee/projects/eda-asm-prediction/ADF_800/adf_outputs/batch_006/qmrxn20_sn2_C_D_D_E_C_B/
 Results directory: /gpfs/home1/yeseo1ee/projects/eda-asm-prediction/ADF_800/adf_outputs/batch_006/qmrxn20_sn2_C_D_D_E_C_B/c5_fragB_opt.results/
 Scratch directory: /tmp/amstmp_c5_fragB_opt_kid0.1172723347/

 RNG seed: 516842104 -795789342 221803069 1643633762 1246908795 1342031218 -1983740787 1312100262



                      ************************************************************************
                      *  ADF 2026.103  RunTime: Jun03-2026 21:59:05  ShM Nodes: 1  Procs: 1  *
                      ************************************************************************
  

       ***************************
       *  GEOMETRY OPTIMIZATION  *
       ***************************

Optimization Method                    Quasi Newton
Optimization Coordinates               Delocalized Coordinates
Optimize lattice                       F
 
 ------------------------------------------------------
 Convergence criteria (Hartree,Angstrom)
 ------------------------------------------------------
 Maximum gradient               0.000100000000
 Maximum rms gradient           0.000066666667
 Maximum step allowed           0.010000000000
 Maximum rms step allowed       0.006666666667
 Maximum energy change allowe   0.000170000000
 Maximum stress energy allowe   0.000500000000
 
Initial model Hessian                  Automatic Hessian
 
------------------------------------
Quasi-Newton Optimizer Parameters
------------------------------------
Hessian Update Method                  BFGS
Maximum number of steps                  200
First GDIIS cycle                          0
Maximum GDIIS vectors                      0
Trust radius (bohr)                        0.200000
Trust radius varies                        T
Constraints converged at all steps         T
Use projector                              T
 
 Rigid motions settings for: old optimizer
 Atomic rotations (x,y,z):     T T T
 Atomic translations (x,y,z):  T T T
 Tolerance:                  1.000000000000000E-006

--------
Geometry
--------
Formula: C5H9BrN2
Atoms
  Index Symbol   x (angstrom)   y (angstrom)   z (angstrom)
      1      C     0.48071165    -0.05187652     0.02241274
      2      H     1.66583881     1.60318022    -0.08287067
      3     Br    -1.87609751    -0.27261882    -0.05004527
      4      C     0.58619270     1.47163450    -0.00211770
      5      C     0.68780173    -0.75045251    -1.22530367
      6      N     0.76428513    -1.37404359    -2.22126380
      7      C     0.65948258    -0.81079998     1.32278919
      8      H     1.67690742    -0.62608656     1.65713534
      9      H    -0.07429919    -0.49600461     2.06376287
     10      H     0.52868051    -1.87770085     1.14045293
     11      C     0.10319173     2.12773163     1.29074382
     12      H    -0.96066611     1.94198588     1.45408841
     13      H     0.66543733     1.77305604     2.15888126
     14      H     0.26121396     3.20882308     1.21296437
     15      N    -0.00825836     2.01096490    -1.21979770
     16      H     0.25174732     2.98713282    -1.29991130
     17      H    -1.01843354     1.94795021    -1.15357529

Total System Charge              0.00000


----------------
ADF Engine Input
----------------
 
   Basis
     Type TZ2P
     Core None
   End
   XC
     GGA BLYP
     Dispersion GRIMME3 BJDAMP
   End
   Symmetry NOSYM
   NumericalQuality Normal
   Unrestricted No
   SCF
     Iterations 200
     Converge 1.0e-6
   End
   Save TAPE21
 

 Title: *** (NO TITLE) ***

Challenging geometry: could not add a dihedral for atom    6
 Using automatic Hessian for delocalized coordinates.
 *** GO1_GOStep1 ***

 Energy gradients wrt nuclear displacements
 ==========================================

     Atom      Cartesian (a.u./angstrom)
                 X         Y         Z
 ----------------------------------------
     1 C     0.097490  0.006079  0.007895
     2 H    -0.019897 -0.011501  0.001146
     3 Br   -0.011260  0.001992  0.002272
     4 C    -0.001640  0.016051 -0.000559
     5 C    -0.007524  0.021667  0.032095
     6 N    -0.008606 -0.025986 -0.041126
     7 C    -0.012518  0.005913  0.019744
     8 H    -0.014700  0.001003 -0.014731
     9 H    -0.007733 -0.005444 -0.002771
    10 H    -0.002215  0.003009 -0.001965
    11 C    -0.007548 -0.008020 -0.009947
    12 H     0.001943  0.001542  0.001357
    13 H    -0.000652 -0.000224 -0.005264
    14 H     0.000202 -0.001060 -0.000784
    15 N    -0.017830  0.003896  0.005054
    16 H    -0.000295 -0.011070  0.005258
    17 H     0.012783  0.002152  0.002327
 ----------------------------------------
 
----------------------------------------------------------------------
Geometry Convergence after Step   1       (Hartree/Angstrom,Angstrom)
----------------------------------------------------------------------
current energy                               -3.36332656 Hartree
energy change                      -3.36332656     0.00017000    F
constrained gradient max            0.09747351     0.00010000    F
constrained gradient rms            0.01803997     0.00006667    F
gradient max                        0.09748711
gradient rms                        0.01803998
cart. step max                      0.06673185     0.01000000    F
cart. step rms                      0.02005931     0.00666667    F
 

--------
Geometry
--------
Formula: C5H9BrN2
Atoms
  Index Symbol   x (angstrom)   y (angstrom)   z (angstrom)
      1      C     0.42438777    -0.05740943     0.01944848
      2      H     1.65654865     1.58776741    -0.08234317
      3     Br    -1.92346457    -0.30584515    -0.05424068
      4      C     0.56586821     1.46805169     0.00067571
      5      C     0.66230498    -0.75021629    -1.22214163
      6      N     0.83101698    -1.35534583    -2.19643935
      7      C     0.65940176    -0.81820423     1.31314619
      8      H     1.68753054    -0.62488335     1.63694600
      9      H    -0.05068838    -0.51108985     2.07880706
     10      H     0.54284197    -1.88925074     1.13920677
     11      C     0.10939505     2.13813057     1.30346393
     12      H    -0.95853273     1.97425889     1.46972560
     13      H     0.66628975     1.77361006     2.17355204
     14      H     0.29011096     3.21610534     1.22564157
     15      N    -0.00927169     2.01271825    -1.22932560
     16      H     0.26693250     2.98780115    -1.32844305
     17      H    -1.02693559     1.96667735    -1.17933434

Total System Charge              0.00000

 *** GO1_GOStep2 ***

 Energy gradients wrt nuclear displacements
 ==========================================

     Atom      Cartesian (a.u./angstrom)
                 X         Y         Z
 ----------------------------------------
     1 C     0.083346  0.003723 -0.000395
     2 H    -0.008818 -0.005686  0.000467
     3 Br   -0.020812 -0.002613  0.000422
     4 C    -0.008402  0.012714  0.002087
     5 C    -0.004508 -0.013989 -0.022030
     6 N    -0.010612  0.010590  0.016790
     7 C    -0.014205  0.004697  0.015462
     8 H    -0.006056  0.000139 -0.007006
     9 H    -0.004624 -0.004826 -0.003061
    10 H    -0.000834  0.001374 -0.001098
    11 C    -0.003577 -0.005023 -0.004705
    12 H     0.001881  0.000977  0.000558
    13 H    -0.000068  0.000466 -0.001637
    14 H     0.000526 -0.000328  0.000048
    15 N    -0.008424 -0.000417 -0.000007
    16 H     0.000932 -0.003254  0.002421
    17 H     0.004256  0.001456  0.001684
 ----------------------------------------

 dE(predicted):    -0.57788E-02, dE(actual):    -0.55943E-02, Trust radius:    0.400000, all in a.u.
 
----------------------------------------------------------------------
Geometry Convergence after Step   2       (Hartree/Angstrom,Angstrom)
----------------------------------------------------------------------
current energy                               -3.36892087 Hartree
energy change                      -0.00559430     0.00017000    F
constrained gradient max            0.08333744     0.00010000    F
constrained gradient rms            0.01382094     0.00006667    F
gradient max                        0.08334464
gradient rms                        0.01382094
cart. step max                      0.13244493     0.01000000    F
cart. step rms                      0.03744312     0.00666667    F
 

--------
Geometry
--------
Formula: C5H9BrN2
Atoms
  Index Symbol   x (angstrom)   y (angstrom)   z (angstrom)
      1      C     0.31209028    -0.06864722     0.02270530
      2      H     1.63724085     1.53402218    -0.07337587
      3     Br    -2.01427382    -0.29484070    -0.03977721
      4      C     0.53325677     1.44906101     0.00687415
      5      C     0.62459280    -0.74622660    -1.20656237
      6      N     0.96346191    -1.32887533    -2.16401592
      7      C     0.66748525    -0.82335320     1.29383863
      8      H     1.71702499    -0.60888364     1.55767208
      9      H     0.02261968    -0.51853215     2.11640145
     10      H     0.56776730    -1.90033088     1.14018529
     11      C     0.10425776     2.14375854     1.31371348
     12      H    -0.97236776     2.02217992     1.47200763
     13      H     0.63958179     1.75693770     2.18976388
     14      H     0.32861796     3.21375897     1.23562288
     15      N    -0.00645680     2.01010605    -1.23567499
     16      H     0.29928005     2.97806776    -1.35138963
     17      H    -1.03044285     1.99467344    -1.20964327

Total System Charge              0.00000

 *** GO1_GOStep3 ***

 Energy gradients wrt nuclear displacements
 ==========================================

     Atom      Cartesian (a.u./angstrom)
                 X         Y         Z
 ----------------------------------------
     1 C     0.055088  0.001862 -0.004774
     2 H     0.003085  0.000455 -0.000756
     3 Br   -0.035507 -0.003226 -0.001609
     4 C    -0.010300  0.002912  0.003472
     5 C    -0.015446  0.011264  0.022651
     6 N     0.006584 -0.012227 -0.021817
     7 C    -0.008257  0.004663  0.005806
     8 H     0.002599 -0.000312  0.001330
     9 H    -0.000663 -0.002413 -0.002764
    10 H     0.001141 -0.000260 -0.000779
    11 C     0.000114 -0.002213 -0.000189
    12 H     0.000541  0.000126 -0.000285
    13 H     0.000609  0.000238  0.001051
    14 H     0.000620  0.000184  0.000376
    15 N     0.000626 -0.003717 -0.001976
    16 H     0.001647  0.002023 -0.000472
    17 H    -0.002482  0.000641  0.000737
 ----------------------------------------

 dE(predicted):    -0.59193E-02, dE(actual):    -0.57034E-02, Trust radius:    0.800000, all in a.u.
 
----------------------------------------------------------------------
Geometry Convergence after Step   3       (Hartree/Angstrom,Angstrom)
----------------------------------------------------------------------
current energy                               -3.37462431 Hartree
energy change                      -0.00570344     0.00017000    F
constrained gradient max            0.05512225     0.00010000    F
constrained gradient rms            0.01103177     0.00006667    F
gradient max                        0.05512195
gradient rms                        0.01103177
cart. step max                      0.10989873     0.01000000    F
cart. step rms                      0.03406872     0.00666667    F
 

--------
Geometry
--------
Formula: C5H9BrN2
Atoms
  Index Symbol   x (angstrom)   y (angstrom)   z (angstrom)
      1      C     0.22565722    -0.07750726     0.02891589
      2      H     1.62620791     1.48123796    -0.05340273
      3     Br    -2.05256728    -0.27639761    -0.00037907
      4      C     0.51568324     1.42998484     0.01339584
      5      C     0.61021750    -0.73590314    -1.18963654
      6      N     1.05094292    -1.28824528    -2.10940951
      7      C     0.67390190    -0.83466060     1.26898309
      8      H     1.74628374    -0.63087079     1.44777336
      9      H     0.11761223    -0.50338178     2.14684811
     10      H     0.54890593    -1.91287345     1.14112188
     11      C     0.08686236     2.15078013     1.31128050
     12      H    -0.99678798     2.05982459     1.45171440
     13      H     0.59517028     1.75324415     2.19882051
     14      H     0.34192940     3.21345864     1.22808920
     15      N     0.00568489     2.00828753    -1.23524721
     16      H     0.31773233     2.97523149    -1.34506130
     17      H    -1.01970043     2.00066642    -1.23546089

Total System Charge              0.00000

 *** GO1_GOStep4 ***

 Energy gradients wrt nuclear displacements
 ==========================================

     Atom      Cartesian (a.u./angstrom)
                 X         Y         Z
 ----------------------------------------
     1 C     0.035532  0.000276 -0.006077
     2 H     0.008878  0.002371 -0.000901
     3 Br   -0.042953 -0.002266 -0.000787
     4 C    -0.005096 -0.007211  0.000501
     5 C     0.000733 -0.005007 -0.003205
     6 N    -0.002967  0.008877  0.012789
     7 C    -0.003549  0.002574 -0.005694
     8 H     0.005715  0.000640  0.004279
     9 H     0.001263  0.000476 -0.001167
    10 H     0.002011 -0.001479 -0.000397
    11 C     0.000406  0.000823  0.001647
    12 H    -0.001111 -0.000404 -0.000352
    13 H     0.000638 -0.000328  0.001160
    14 H     0.000253  0.000398  0.000192
    15 N     0.003394 -0.002859  0.000001
    16 H     0.000927  0.002908 -0.001664
    17 H    -0.004074  0.000209 -0.000327
 ----------------------------------------

 dE(predicted):    -0.21231E-02, dE(actual):    -0.28199E-02, Trust radius:    0.800000, all in a.u.
 
----------------------------------------------------------------------
Geometry Convergence after Step   4       (Hartree/Angstrom,Angstrom)
----------------------------------------------------------------------
current energy                               -3.37744423 Hartree
energy change                      -0.00281992     0.00017000    F
constrained gradient max            0.04293530     0.00010000    F
constrained gradient rms            0.00859665     0.00006667    F
gradient max                        0.04293774
gradient rms                        0.00859665
cart. step max                      0.08848427     0.01000000    F
cart. step rms                      0.02633509     0.00666667    F
 

--------
Geometry
--------
Formula: C5H9BrN2
Atoms
  Index Symbol   x (angstrom)   y (angstrom)   z (angstrom)
      1      C     0.18179612    -0.08034265     0.03826117
      2      H     1.61100557     1.45747250    -0.02712996
      3     Br    -2.02816121    -0.30776336     0.02188102
      4      C     0.50122093     1.42539214     0.02334970
      5      C     0.60932714    -0.72388489    -1.18092435
      6      N     1.07361657    -1.27099363    -2.09184480
      7      C     0.67682037    -0.84914669     1.25572616
      8      H     1.76462923    -0.68481000     1.35928908
      9      H     0.20034470    -0.48500010     2.16910515
     10      H     0.50024794    -1.92227654     1.15160925
     11      C     0.07031125     2.16819827     1.31037298
     12      H    -1.01663295     2.09819353     1.43817792
     13      H     0.55879259     1.77074318     2.20855892
     14      H     0.34428018     3.22524086     1.21862298
     15      N     0.02129812     2.01231047    -1.23377903
     16      H     0.32743849     2.98182558    -1.32843793
     17      H    -1.00259890     1.99771718    -1.26449276

Total System Charge              0.00000

 *** GO1_GOStep5 ***

 Energy gradients wrt nuclear displacements
 ==========================================

     Atom      Cartesian (a.u./angstrom)
                 X         Y         Z
 ----------------------------------------
     1 C     0.024844  0.002697 -0.001996
     2 H     0.007412  0.002696 -0.000471
     3 Br   -0.039367 -0.004564 -0.000208
     4 C    -0.003753 -0.010824 -0.002727
     5 C     0.004556 -0.002918 -0.001120
     6 N    -0.003353  0.007842  0.011808
     7 C    -0.003249 -0.001603 -0.011464
     8 H     0.005047  0.001310  0.003635
     9 H     0.002355  0.001597  0.000745
    10 H     0.001869 -0.001447  0.000437
    11 C     0.002197  0.003629  0.003043
    12 H    -0.000929 -0.000625 -0.000618
    13 H     0.000206 -0.000050  0.000919
    14 H    -0.000049  0.000288  0.000128
    15 N     0.004546  0.000360  0.000383
    16 H     0.000216  0.002004 -0.001802
    17 H    -0.002549 -0.000393 -0.000691
 ----------------------------------------

 dE(predicted):    -0.13885E-02, dE(actual):    -0.23065E-02, Trust radius:    0.800000, all in a.u.
 
----------------------------------------------------------------------
Geometry Convergence after Step   5       (Hartree/Angstrom,Angstrom)
----------------------------------------------------------------------
current energy                               -3.37975073 Hartree
energy change                      -0.00230650     0.00017000    F
constrained gradient max            0.03934929     0.00010000    F
constrained gradient rms            0.00755056     0.00006667    F
gradient max                        0.03935146
gradient rms                        0.00755056
cart. step max                      0.18803948     0.01000000    F
cart. step rms                      0.05866330     0.00666667    F
 

--------
Geometry
--------
Formula: C5H9BrN2
Atoms
  Index Symbol   x (angstrom)   y (angstrom)   z (angstrom)
      1      C     0.12631547    -0.07887261     0.04717369
      2      H     1.59110627     1.44010667     0.01151523
      3     Br    -1.89153438    -0.30064967     0.02987937
      4      C     0.48706815     1.42869716     0.03676879
      5      C     0.62007916    -0.71015301    -1.17813656
      6      N     1.12190830    -1.26159880    -2.06206015
      7      C     0.67647466    -0.86740989     1.23961264
      8      H     1.77654794    -0.85406618     1.18710291
      9      H     0.38838418    -0.40477436     2.19005041
     10      H     0.33986493    -1.90529876     1.22191765
     11      C     0.03896777     2.18544041     1.31248003
     12      H    -1.05127277     2.13374648     1.42085846
     13      H     0.50046042     1.78690811     2.22367731
     14      H     0.32803160     3.23782855     1.21822387
     15      N     0.03309413     2.01914742    -1.22970292
     16      H     0.29351219     3.00311314    -1.29200534
     17      H    -0.98527187     1.96071118    -1.30900986

Total System Charge              0.00000

 *** GO1_GOStep6 ***

 Energy gradients wrt nuclear displacements
 ==========================================

     Atom      Cartesian (a.u./angstrom)
                 X         Y         Z
 ----------------------------------------
     1 C    -0.011297  0.005522  0.007390
     2 H     0.002276  0.001087  0.000737
     3 Br    0.007507  0.000026 -0.000275
     4 C    -0.002327 -0.010043 -0.007531
     5 C     0.009707 -0.009170 -0.014836
     6 N    -0.007805  0.011638  0.019371
     7 C    -0.009679 -0.007826 -0.013786
     8 H     0.003415  0.001229  0.001106
     9 H     0.005024  0.002762  0.003341
    10 H     0.001065  0.000239  0.001639
    11 C     0.003619  0.005044  0.004948
    12 H    -0.000989 -0.000988 -0.000536
    13 H    -0.000710 -0.000399  0.000772
    14 H    -0.000558 -0.000177 -0.000283
    15 N     0.002460  0.001891  0.000924
    16 H    -0.001182  0.000231 -0.001369
    17 H    -0.000528 -0.001067 -0.001611
 ----------------------------------------

 dE(predicted):    -0.34674E-02, dE(actual):    -0.24296E-02, Trust radius:    0.800000, all in a.u.
 
----------------------------------------------------------------------
Geometry Convergence after Step   6       (Hartree/Angstrom,Angstrom)
----------------------------------------------------------------------
current energy                               -3.38218037 Hartree
energy change                      -0.00242964     0.00017000    F
constrained gradient max            0.01937449     0.00010000    F
constrained gradient rms            0.00610550     0.00006667    F
gradient max                        0.01936788
gradient rms                        0.00610550
cart. step max                      0.09980023     0.01000000    F
cart. step rms                      0.02895304     0.00666667    F
 

--------
Geometry
--------
Formula: C5H9BrN2
Atoms
  Index Symbol   x (angstrom)   y (angstrom)   z (angstrom)
      1      C     0.16684192    -0.08105985     0.03563819
      2      H     1.59923571     1.45614499    -0.00952723
      3     Br    -1.90760134    -0.32069735     0.00943898
      4      C     0.49694561     1.43203217     0.02753010
      5      C     0.62751262    -0.72694812    -1.19155500
      6      N     1.06806774    -1.29988760    -2.10198284
      7      C     0.67836336    -0.84856484     1.25751113
      8      H     1.77546247    -0.78224457     1.27858090
      9      H     0.28858395    -0.41676307     2.18362844
     10      H     0.39356054    -1.90089563     1.20305130
     11      C     0.05097090     2.17152425     1.30917755
     12      H    -1.03645750     2.10869187     1.43015399
     13      H     0.52940189     1.77256915     2.21097544
     14      H     0.32927979     3.22748785     1.22073884
     15      N     0.02476109     2.02704850    -1.22816430
     16      H     0.30450328     3.00537796    -1.29057087
     17      H    -0.99569587     1.98906010    -1.27627910

Total System Charge              0.00000

 *** GO1_GOStep7 ***

 Energy gradients wrt nuclear displacements
 ==========================================

     Atom      Cartesian (a.u./angstrom)
                 X         Y         Z
 ----------------------------------------
     1 C     0.007719  0.004173  0.004192
     2 H     0.000069  0.000422  0.000403
     3 Br   -0.009266 -0.002516 -0.000314
     4 C    -0.001036 -0.004827 -0.004041
     5 C     0.000314  0.000623 -0.000267
     6 N     0.000782 -0.000602  0.000283
     7 C    -0.003203 -0.003443 -0.005910
     8 H     0.000560  0.000464  0.000319
     9 H     0.001962  0.001421  0.002337
    10 H     0.000177  0.000569  0.000741
    11 C     0.001145  0.003049  0.002251
    12 H    -0.000070 -0.000209 -0.000190
    13 H    -0.000268 -0.000364 -0.000059
    14 H    -0.000202 -0.000169 -0.000174
    15 N     0.001175  0.002666  0.001253
    16 H    -0.000588 -0.000557 -0.000289
    17 H     0.000729 -0.000701 -0.000534
 ----------------------------------------

 dE(predicted):    -0.98567E-03, dE(actual):    -0.92694E-03, Trust radius:    0.800000, all in a.u.
 
----------------------------------------------------------------------
Geometry Convergence after Step   7       (Hartree/Angstrom,Angstrom)
----------------------------------------------------------------------
current energy                               -3.38310731 Hartree
energy change                      -0.00092694     0.00017000    F
constrained gradient max            0.00925065     0.00010000    F
constrained gradient rms            0.00253442     0.00006667    F
gradient max                        0.00925104
gradient rms                        0.00253442
cart. step max                      0.02978184     0.01000000    F
cart. step rms                      0.00842959     0.00666667    F
 

--------
Geometry
--------
Formula: C5H9BrN2
Atoms
  Index Symbol   x (angstrom)   y (angstrom)   z (angstrom)
      1      C     0.16960824    -0.08289417     0.03151871
      2      H     1.60080048     1.45665020    -0.01742846
      3     Br    -1.89233637    -0.31245260    -0.00027225
      4      C     0.49926572     1.43192116     0.02561054
      5      C     0.63256041    -0.73028542    -1.19525940
      6      N     1.05894977    -1.30730955    -2.11009033
      7      C     0.67734019    -0.84200027     1.26239294
      8      H     1.77233554    -0.76305171     1.30132635
      9      H     0.25880211    -0.41838745     2.17837638
     10      H     0.40541040    -1.89770752     1.20054427
     11      C     0.05482390     2.16559001     1.30921748
     12      H    -1.03156695     2.09941008     1.43586273
     13      H     0.53979119     1.76859954     2.20832862
     14      H     0.32913412     3.22283229     1.22185687
     15      N     0.01744955     2.02438430    -1.22776163
     16      H     0.30555840     3.00033190    -1.29512501
     17      H    -1.00419057     1.99724507    -1.26075228

Total System Charge              0.00000

 *** GO1_GOStep8 ***

 Energy gradients wrt nuclear displacements
 ==========================================

     Atom      Cartesian (a.u./angstrom)
                 X         Y         Z
 ----------------------------------------
     1 C     0.004354  0.002307  0.002476
     2 H    -0.000194 -0.000235  0.000364
     3 Br   -0.004820 -0.000721 -0.000606
     4 C    -0.000625 -0.002220 -0.001999
     5 C     0.000413  0.001035 -0.000528
     6 N     0.000417 -0.001264 -0.000662
     7 C    -0.000725 -0.000661 -0.002366
     8 H     0.000135 -0.000159  0.000006
     9 H     0.000937  0.000775  0.001104
    10 H    -0.000332  0.000605  0.000279
    11 C     0.000099  0.001398  0.001430
    12 H     0.000040 -0.000067 -0.000068
    13 H    -0.000152 -0.000178 -0.000106
    14 H     0.000004 -0.000234 -0.000122
    15 N     0.000526  0.000633  0.000933
    16 H    -0.000358 -0.000389  0.000151
    17 H     0.000280 -0.000626 -0.000287
 ----------------------------------------

 dE(predicted):    -0.15690E-03, dE(actual):    -0.16997E-03, Trust radius:    0.800000, all in a.u.
 
----------------------------------------------------------------------
Geometry Convergence after Step   8       (Hartree/Angstrom,Angstrom)
----------------------------------------------------------------------
current energy                               -3.38327728 Hartree
energy change                      -0.00016997     0.00017000    T
constrained gradient max            0.00480981     0.00010000    F
constrained gradient rms            0.00128491     0.00006667    F
gradient max                        0.00480948
gradient rms                        0.00128491
cart. step max                      0.05498193     0.01000000    F
cart. step rms                      0.01515250     0.00666667    F
 

--------
Geometry
--------
Formula: C5H9BrN2
Atoms
  Index Symbol   x (angstrom)   y (angstrom)   z (angstrom)
      1      C     0.16712599    -0.08772762     0.02868551
      2      H     1.59903198     1.45505452    -0.03343826
      3     Br    -1.87753754    -0.31783914     0.00242666
      4      C     0.49811099     1.43050165     0.02111187
      5      C     0.63457555    -0.73486167    -1.19639890
      6      N     1.05835964    -1.30899487    -2.11428134
      7      C     0.67200257    -0.83970429     1.26813308
      8      H     1.76151275    -0.72460567     1.33986937
      9      H     0.20382018    -0.44294600     2.17032614
     10      H     0.43798511    -1.90392012     1.18703471
     11      C     0.06280539     2.16177937     1.30661320
     12      H    -1.02195213     2.09339401     1.44470063
     13      H     0.55877795     1.76918567     2.20171137
     14      H     0.33292131     3.22019817     1.21655046
     15      N     0.00533843     2.02411503    -1.22869153
     16      H     0.31835645     2.99209861    -1.30914195
     17      H    -1.01749848     2.02714819    -1.23686548

Total System Charge              0.00000

 *** GO1_GOStep9 ***

 Energy gradients wrt nuclear displacements
 ==========================================

     Atom      Cartesian (a.u./angstrom)
                 X         Y         Z
 ----------------------------------------
     1 C     0.000542 -0.000057  0.000298
     2 H     0.000123 -0.000364  0.000030
     3 Br    0.000948 -0.000037  0.000259
     4 C    -0.001149 -0.000279  0.000160
     5 C    -0.000211  0.001267 -0.000143
     6 N     0.000259 -0.001420 -0.001086
     7 C    -0.000041  0.001591  0.001496
     8 H    -0.000150 -0.000607 -0.000375
     9 H    -0.000133 -0.000383 -0.000862
    10 H    -0.000561 -0.000001 -0.000024
    11 C    -0.000582 -0.000096  0.000030
    12 H     0.000197  0.000098 -0.000037
    13 H     0.000140  0.000330 -0.000174
    14 H     0.000245 -0.000071 -0.000000
    15 N     0.000751 -0.000044  0.000187
    16 H    -0.000157  0.000345  0.000158
    17 H    -0.000219 -0.000273  0.000083
 ----------------------------------------

 dE(predicted):    -0.12709E-03, dE(actual):    -0.85733E-04, Trust radius:    0.800000, all in a.u.
 
----------------------------------------------------------------------
Geometry Convergence after Step   9       (Hartree/Angstrom,Angstrom)
----------------------------------------------------------------------
current energy                               -3.38336301 Hartree
energy change                      -0.00008573     0.00017000    T
constrained gradient max            0.00159033     0.00010000    F
constrained gradient rms            0.00055801     0.00006667    F
gradient max                        0.00159102
gradient rms                        0.00055801
cart. step max                      0.02037131     0.01000000    F
cart. step rms                      0.00657593     0.00666667    T
 

--------
Geometry
--------
Formula: C5H9BrN2
Atoms
  Index Symbol   x (angstrom)   y (angstrom)   z (angstrom)
      1      C     0.16248430    -0.08900954     0.02904196
      2      H     1.59771963     1.45231488    -0.03982354
      3     Br    -1.88248908    -0.31380676    -0.00079504
      4      C     0.49683963     1.42915193     0.01946937
      5      C     0.63286955    -0.73578848    -1.19392265
      6      N     1.06320802    -1.30506970    -2.11121001
      7      C     0.67016351    -0.83893258     1.26925099
      8      H     1.75689731    -0.70423436     1.35134305
      9      H     0.18761708    -0.45441235     2.16940517
     10      H     0.45657746    -1.90700329     1.18154938
     11      C     0.06648485     2.15958441     1.30672691
     12      H    -1.01799563     2.09151733     1.44809746
     13      H     0.56459068     1.76526706     2.20007837
     14      H     0.33642518     3.21817277     1.21723461
     15      N    -0.00041496     2.02138741    -1.22975521
     16      H     0.32591588     2.98413138    -1.32014054
     17      H    -1.02315724     2.03960574    -1.22820475

Total System Charge              0.00000

 *** GO1_GOStep10 ***

 Energy gradients wrt nuclear displacements
 ==========================================

     Atom      Cartesian (a.u./angstrom)
                 X         Y         Z
 ----------------------------------------
     1 C    -0.000401 -0.000432 -0.000326
     2 H     0.000543 -0.000310  0.000002
     3 Br    0.000337  0.000423 -0.000134
     4 C    -0.000623  0.000041  0.000695
     5 C     0.000217  0.000594 -0.000470
     6 N    -0.000231 -0.000344  0.000239
     7 C     0.000514  0.001465  0.001189
     8 H     0.000125 -0.000453 -0.000079
     9 H    -0.000273 -0.000315 -0.000809
    10 H    -0.000269 -0.000162 -0.000055
    11 C    -0.000394 -0.000509 -0.000076
    12 H     0.000125  0.000074 -0.000023
    13 H     0.000182  0.000248  0.000017
    14 H     0.000224  0.000022 -0.000012
    15 N     0.000376 -0.000635 -0.000331
    16 H    -0.000115  0.000348  0.000125
    17 H    -0.000338 -0.000055  0.000049
 ----------------------------------------

 dE(predicted):    -0.21370E-04, dE(actual):    -0.34492E-04, Trust radius:    0.800000, all in a.u.
 
----------------------------------------------------------------------
Geometry Convergence after Step  10       (Hartree/Angstrom,Angstrom)
----------------------------------------------------------------------
current energy                               -3.38339750 Hartree
energy change                      -0.00003449     0.00017000    T
constrained gradient max            0.00146659     0.00010000    F
constrained gradient rms            0.00042768     0.00006667    F
gradient max                        0.00146698
gradient rms                        0.00042768
cart. step max                      0.01151474     0.01000000    F
cart. step rms                      0.00370550     0.00666667    T
 

--------
Geometry
--------
Formula: C5H9BrN2
Atoms
  Index Symbol   x (angstrom)   y (angstrom)   z (angstrom)
      1      C     0.15949570    -0.08983546     0.03074934
      2      H     1.59579367     1.45115407    -0.04025022
      3     Br    -1.88538407    -0.31683039     0.00567529
      4      C     0.49520984     1.42864471     0.01906215
      5      C     0.62858215    -0.73645284    -1.19239214
      6      N     1.06279365    -1.30173180    -2.11028622
      7      C     0.67109372    -0.84049563     1.26910489
      8      H     1.75663677    -0.69675326     1.35141142
      9      H     0.18768611    -0.46113887     2.17161690
     10      H     0.46615703    -1.90993439     1.17900546
     11      C     0.06484208     2.15977607     1.30588945
     12      H    -1.02007394     2.09319265     1.44554927
     13      H     0.56023979     1.76298451     2.19970225
     14      H     0.33611561     3.21810492     1.21765942
     15      N    -0.00020405     2.02144563    -1.23070520
     16      H     0.33719884     2.97962542    -1.32681880
     17      H    -1.02244674     2.05112048    -1.22662773

Total System Charge              0.00000

 *** GO1_GOStep11 ***

 Energy gradients wrt nuclear displacements
 ==========================================

     Atom      Cartesian (a.u./angstrom)
                 X         Y         Z
 ----------------------------------------
     1 C    -0.000233 -0.000144 -0.000193
     2 H     0.000298 -0.000147 -0.000075
     3 Br    0.000039  0.000080  0.000062
     4 C    -0.000217 -0.000070  0.000430
     5 C    -0.000111  0.000330 -0.000094
     6 N    -0.000042 -0.000104  0.000300
     7 C     0.000147  0.000425  0.000327
     8 H    -0.000027 -0.000101 -0.000029
     9 H    -0.000191 -0.000089 -0.000207
    10 H    -0.000020 -0.000196  0.000017
    11 C    -0.000072 -0.000319 -0.000152
    12 H     0.000044  0.000046 -0.000011
    13 H     0.000139  0.000073  0.000031
    14 H     0.000080  0.000081 -0.000020
    15 N     0.000299 -0.000042 -0.000463
    16 H    -0.000086  0.000166  0.000059
    17 H    -0.000048  0.000013  0.000017
 ----------------------------------------

 dE(predicted):    -0.85186E-05, dE(actual):    -0.20179E-04, Trust radius:    0.800000, all in a.u.
 
----------------------------------------------------------------------
Geometry Convergence after Step  11       (Hartree/Angstrom,Angstrom)
----------------------------------------------------------------------
current energy                               -3.38341768 Hartree
energy change                      -0.00002018     0.00017000    T
constrained gradient max            0.00045075     0.00010000    F
constrained gradient rms            0.00017930     0.00006667    F
gradient max                        0.00045063
gradient rms                        0.00017930
cart. step max                      0.00415575     0.01000000    T
cart. step rms                      0.00147111     0.00666667    T
 

--------
Geometry
--------
Formula: C5H9BrN2
Atoms
  Index Symbol   x (angstrom)   y (angstrom)   z (angstrom)
      1      C     0.15965022    -0.09004440     0.03162802
      2      H     1.59518991     1.45188131    -0.03899488
      3     Br    -1.88558232    -0.31751622     0.00674898
      4      C     0.49481312     1.42871175     0.01967747
      5      C     0.62790388    -0.73642712    -1.19207514
      6      N     1.06150814    -1.30024425    -2.11116490
      7      C     0.67214096    -0.84174701     1.26894073
      8      H     1.75792557    -0.69865073     1.34930423
      9      H     0.19184187    -0.46178403     2.17310337
     10      H     0.46605598    -1.91083047     1.17907393
     11      C     0.06336566     2.16075009     1.30579409
     12      H    -1.02186511     2.09504053     1.44367035
     13      H     0.55655229     1.76317291     2.20043987
     14      H     0.33556686     3.21880776     1.21788727
     15      N    -0.00018950     2.02072314    -1.23038885
     16      H     0.34108527     2.97710096    -1.32954434
     17      H    -1.02222663     2.05393162    -1.22575467

Total System Charge              0.00000

 *** GO1_GOStep12 ***

 Energy gradients wrt nuclear displacements
 ==========================================

     Atom      Cartesian (a.u./angstrom)
                 X         Y         Z
 ----------------------------------------
     1 C    -0.000023  0.000052 -0.000110
     2 H     0.000069 -0.000095 -0.000039
     3 Br   -0.000089  0.000029 -0.000018
     4 C    -0.000006 -0.000101  0.000255
     5 C    -0.000133  0.000112 -0.000031
     6 N    -0.000020 -0.000047  0.000218
     7 C     0.000029 -0.000133 -0.000013
     8 H    -0.000089  0.000019  0.000025
     9 H    -0.000063  0.000010  0.000064
    10 H     0.000013 -0.000068  0.000031
    11 C     0.000083  0.000019 -0.000125
    12 H     0.000026  0.000032 -0.000009
    13 H     0.000066  0.000019 -0.000017
    14 H     0.000008  0.000065 -0.000004
    15 N     0.000149  0.000035 -0.000262
    16 H    -0.000043  0.000044  0.000051
    17 H     0.000025  0.000009 -0.000015
 ----------------------------------------

 dE(predicted):    -0.16024E-05, dE(actual):    -0.50104E-05, Trust radius:    0.800000, all in a.u.
 
----------------------------------------------------------------------
Geometry Convergence after Step  12       (Hartree/Angstrom,Angstrom)
----------------------------------------------------------------------
current energy                               -3.38342269 Hartree
energy change                      -0.00000501     0.00017000    T
constrained gradient max            0.00025978     0.00010000    F
constrained gradient rms            0.00008154     0.00006667    F
gradient max                        0.00025979
gradient rms                        0.00008154
cart. step max                      0.00454312     0.01000000    T
cart. step rms                      0.00167477     0.00666667    T
 

--------
Geometry
--------
Formula: C5H9BrN2
Atoms
  Index Symbol   x (angstrom)   y (angstrom)   z (angstrom)
      1      C     0.16002455    -0.09029320     0.03207605
      2      H     1.59464033     1.45277271    -0.03798670
      3     Br    -1.88511326    -0.31868232     0.00845912
      4      C     0.49442847     1.42875443     0.01991669
      5      C     0.62765936    -0.73658033    -1.19215315
      6      N     1.05949725    -1.29923615    -2.11282555
      7      C     0.67343576    -0.84176301     1.26902521
      8      H     1.75961275    -0.70024745     1.34723464
      9      H     0.19599944    -0.46000706     2.17404880
     10      H     0.46521366    -1.91041662     1.18046334
     11      C     0.06156993     2.16047353     1.30586326
     12      H    -1.02402930     2.09594607     1.44152760
     13      H     0.55216702     1.76139466     2.20123587
     14      H     0.33525316     3.21818075     1.21915036
     15      N    -0.00022158     2.02027901    -1.23024939
     16      H     0.34562839     2.97456422    -1.33282700
     17      H    -1.02202978     2.05773661    -1.22461362

Total System Charge              0.00000

 *** GO1_GOStep13 ***

 Energy gradients wrt nuclear displacements
 ==========================================

     Atom      Cartesian (a.u./angstrom)
                 X         Y         Z
 ----------------------------------------
     1 C    -0.000027  0.000151 -0.000002
     2 H    -0.000102 -0.000059 -0.000006
     3 Br   -0.000100 -0.000010  0.000017
     4 C     0.000190 -0.000007  0.000047
     5 C    -0.000013 -0.000014  0.000008
     6 N    -0.000022 -0.000068  0.000033
     7 C    -0.000067 -0.000334 -0.000141
     8 H    -0.000092  0.000078  0.000049
     9 H     0.000012  0.000102  0.000197
    10 H    -0.000017  0.000073  0.000012
    11 C     0.000132  0.000082 -0.000058
    12 H     0.000004  0.000022 -0.000002
    13 H     0.000007 -0.000048 -0.000010
    14 H    -0.000012  0.000002 -0.000027
    15 N     0.000009  0.000062 -0.000109
    16 H     0.000026 -0.000027  0.000021
    17 H     0.000072 -0.000005 -0.000028
 ----------------------------------------
 
----------------------------------------------------------------------
Geometry Convergence after Step  13       (Hartree/Angstrom,Angstrom)
----------------------------------------------------------------------
current energy                               -3.38342330 Hartree
energy change                      -0.00000061     0.00017000    T
constrained gradient max            0.00033452     0.00010000    F
constrained gradient rms            0.00008027     0.00006667    F
gradient max                        0.00033452
gradient rms                        0.00008027
cart. step max                      0.00161392     0.01000000    T
cart. step rms                      0.00060403     0.00666667    T
 

--------
Geometry
--------
Formula: C5H9BrN2
Atoms
  Index Symbol   x (angstrom)   y (angstrom)   z (angstrom)
      1      C     0.16043175    -0.09055633     0.03227607
      2      H     1.59445556     1.45328564    -0.03772323
      3     Br    -1.88457929    -0.31890219     0.00882257
      4      C     0.49423027     1.42870193     0.02014344
      5      C     0.62774448    -0.73651264    -1.19228383
      6      N     1.05901197    -1.29842852    -2.11367500
      7      C     0.67391026    -0.84201336     1.26914549
      8      H     1.76023177    -0.70126595     1.34718835
      9      H     0.19658365    -0.46000413     2.17401520
     10      H     0.46497717    -1.91056445     1.18075182
     11      C     0.06101943     2.16063458     1.30590179
     12      H    -1.02466979     2.09661620     1.44100870
     13      H     0.55098168     1.76160802     2.20162413
     14      H     0.33529195     3.21818588     1.21915599
     15      N    -0.00063004     2.01977773    -1.23003879
     16      H     0.34711273     2.97317205    -1.33444092
     17      H    -1.02236740     2.05914137    -1.22352622

Total System Charge              0.00000

 *** GO1_GOStep14 ***

 Energy gradients wrt nuclear displacements
 ==========================================

     Atom      Cartesian (a.u./angstrom)
                 X         Y         Z
 ----------------------------------------
     1 C     0.000004  0.000076 -0.000002
     2 H    -0.000069 -0.000038 -0.000006
     3 Br   -0.000014  0.000040  0.000001
     4 C     0.000077  0.000012  0.000021
     5 C    -0.000023 -0.000065 -0.000008
     6 N    -0.000033 -0.000043  0.000002
     7 C    -0.000073 -0.000225 -0.000041
     8 H    -0.000038  0.000035  0.000049
     9 H     0.000002  0.000055  0.000089
    10 H    -0.000042  0.000070  0.000012
    11 C     0.000098  0.000100 -0.000034
    12 H     0.000007  0.000029 -0.000006
    13 H    -0.000002 -0.000005 -0.000016
    14 H     0.000012 -0.000008 -0.000019
    15 N     0.000003 -0.000019 -0.000014
    16 H     0.000055 -0.000010 -0.000010
    17 H     0.000039 -0.000003 -0.000018
 ----------------------------------------
 
----------------------------------------------------------------------
Geometry Convergence after Step  14       (Hartree/Angstrom,Angstrom)
----------------------------------------------------------------------
current energy                               -3.38342278 Hartree
energy change                       0.00000052     0.00017000    T
constrained gradient max            0.00022632     0.00010000    F
constrained gradient rms            0.00004673     0.00006667    T
gradient max                        0.00022631
gradient rms                        0.00004673
cart. step max                      0.00062019     0.01000000    T
cart. step rms                      0.00020987     0.00666667    T
 

--------
Geometry
--------
Formula: C5H9BrN2
Atoms
  Index Symbol   x (angstrom)   y (angstrom)   z (angstrom)
      1      C     0.16036883    -0.09065914     0.03221680
      2      H     1.59438267     1.45326765    -0.03780465
      3     Br    -1.88454650    -0.31919697     0.00879724
      4      C     0.49410734     1.42861084     0.02006576
      5      C     0.62783053    -0.73654313    -1.19229947
      6      N     1.05919547    -1.29832771    -2.11372724
      7      C     0.67399653    -0.84175035     1.26918990
      8      H     1.76038338    -0.70135508     1.34698948
      9      H     0.19667197    -0.45945332     2.17387167
     10      H     0.46480454    -1.91032879     1.18119207
     11      C     0.06091869     2.16037831     1.30593377
     12      H    -1.02478408     2.09661826     1.44094396
     13      H     0.55078332     1.76121918     2.20164960
     14      H     0.33552804     3.21786763     1.21931685
     15      N    -0.00081541     2.01980436    -1.23001762
     16      H     0.34744528     2.97296254    -1.33476919
     17      H    -1.02253444     2.05976156    -1.22320339

Total System Charge              0.00000

 *** GO1_GOStep15 ***

 Energy gradients wrt nuclear displacements
 ==========================================

     Atom      Cartesian (a.u./angstrom)
                 X         Y         Z
 ----------------------------------------
     1 C    -0.000043  0.000023  0.000018
     2 H    -0.000007 -0.000031 -0.000003
     3 Br   -0.000011  0.000036  0.000001
     4 C     0.000034 -0.000007 -0.000003
     5 C    -0.000018 -0.000033  0.000015
     6 N    -0.000033 -0.000047 -0.000007
     7 C    -0.000037 -0.000054  0.000012
     8 H    -0.000018 -0.000004  0.000030
     9 H    -0.000018  0.000033  0.000022
    10 H    -0.000055  0.000035  0.000018
    11 C     0.000044  0.000031 -0.000018
    12 H     0.000017  0.000034 -0.000011
    13 H     0.000009  0.000005 -0.000009
    14 H     0.000039 -0.000005 -0.000024
    15 N     0.000021 -0.000007 -0.000005
    16 H     0.000049 -0.000015 -0.000022
    17 H     0.000027  0.000005 -0.000014
 ----------------------------------------
 
---------------------------------------------------------
Geometry Convergence after Step  15       ** CONVERGED **
---------------------------------------------------------
current energy                               -3.38342281 Hartree
energy change                      -0.00000004     0.00017000    T
constrained gradient max            0.00005472     0.00010000    T
constrained gradient rms            0.00001372     0.00006667    T
gradient max                        0.00005471
gradient rms                        0.00001372
cart. step max                      0.00014454     0.01000000    T
cart. step rms                      0.00004648     0.00666667    T
 
Geometry optimization converged

Optimized geometry:

--------
Geometry
--------
Formula: C5H9BrN2
Atoms
  Index Symbol   x (angstrom)   y (angstrom)   z (angstrom)
      1      C     0.16036883    -0.09065914     0.03221680
      2      H     1.59438267     1.45326765    -0.03780465
      3     Br    -1.88454650    -0.31919697     0.00879724
      4      C     0.49410734     1.42861084     0.02006576
      5      C     0.62783053    -0.73654313    -1.19229947
      6      N     1.05919547    -1.29832771    -2.11372724
      7      C     0.67399653    -0.84175035     1.26918990
      8      H     1.76038338    -0.70135508     1.34698948
      9      H     0.19667197    -0.45945332     2.17387167
     10      H     0.46480454    -1.91032879     1.18119207
     11      C     0.06091869     2.16037831     1.30593377
     12      H    -1.02478408     2.09661826     1.44094396
     13      H     0.55078332     1.76121918     2.20164960
     14      H     0.33552804     3.21786763     1.21931685
     15      N    -0.00081541     2.01980436    -1.23001762
     16      H     0.34744528     2.97296254    -1.33476919
     17      H    -1.02253444     2.05976156    -1.22320339

Total System Charge              0.00000

Performing a single point calculation on the final geometry ...

 *** adf ***



 ===========================
 A T T A C H E D   F I L E S
 ===========================
  
 Restart/tmp/amstmp_c5_fragB_opt_kid0.1172723347/GO1_GOStep15.rkf*** GO1_GOStep15 ***



 ===============================
 M O D E L   P A R A M E T E R S
 ===============================
  
 DENSITY FUNCTIONAL POTENTIAL (scf)
    LDA:                               Exchange only                           == Not Default ==
    Gradient Corrections:              Becke88 LYP                             == Not Default ==

 SPIN  (restricted / unrestr.)
    Molecule:                          Restricted                               
    Fragments:                         Restricted                               

 OTHER ASPECTS
    Relativistic Corrections:          scalar (ZORA,MAPA)                       

    Nuclear Charge Density Model:      Point Charge Nuclei                      
    Core Treatment:                    Frozen Orbital(s)                        

    Hyperfine or Zeeman Interaction:   ---                                      

 Settings for Grimme D3 dispersion correction

      damping                        BJ
      s6                          1.000
      s8                          2.700
      a1                          0.430
      a2                          4.236

 Other (technical) parameters

      alpha                      14.000
      version                         4
 



 ===============
 G E O M E T R Y  ***  3D  Molecule  ***
 ===============
  

 ATOMS
 =====                            X Y Z                    CHARGE
                                (Angstrom)             Nucl     +Core       At.Mass
                       --------------------------    ----------------       -------
    1  C               0.1604   -0.0907    0.0322      6.00      6.00       12.0000
    2  H               1.5944    1.4533   -0.0378      1.00      1.00        1.0078
    3  Br             -1.8845   -0.3192    0.0088     35.00     35.00       78.9183
    4  C               0.4941    1.4286    0.0201      6.00      6.00       12.0000
    5  C               0.6278   -0.7365   -1.1923      6.00      6.00       12.0000
    6  N               1.0592   -1.2983   -2.1137      7.00      7.00       14.0031
    7  C               0.6740   -0.8418    1.2692      6.00      6.00       12.0000
    8  H               1.7604   -0.7014    1.3470      1.00      1.00        1.0078
    9  H               0.1967   -0.4595    2.1739      1.00      1.00        1.0078
   10  H               0.4648   -1.9103    1.1812      1.00      1.00        1.0078
   11  C               0.0609    2.1604    1.3059      6.00      6.00       12.0000
   12  H              -1.0248    2.0966    1.4409      1.00      1.00        1.0078
   13  H               0.5508    1.7612    2.2016      1.00      1.00        1.0078
   14  H               0.3355    3.2179    1.2193      1.00      1.00        1.0078
   15  N              -0.0008    2.0198   -1.2300      7.00      7.00       14.0031
   16  H               0.3474    2.9730   -1.3348      1.00      1.00        1.0078
   17  H              -1.0225    2.0598   -1.2232      1.00      1.00        1.0078


 FRAGMENTS
 =========                                     Atoms in this Fragment     Cart. coord.s (Angstrom)
                                               -------------------------------------------------------
    1  C                                                 1  C            0.1604   -0.0907    0.0322
    2  C                                                 4  C            0.4941    1.4286    0.0201
    3  C                                                 5  C            0.6278   -0.7365   -1.1923
    4  C                                                 7  C            0.6740   -0.8418    1.2692
    5  C                                                11  C            0.0609    2.1604    1.3059
    6  H                                                 2  H            1.5944    1.4533   -0.0378
    7  H                                                 8  H            1.7604   -0.7014    1.3470
    8  H                                                 9  H            0.1967   -0.4595    2.1739
    9  H                                                10  H            0.4648   -1.9103    1.1812
   10  H                                                12  H           -1.0248    2.0966    1.4409
   11  H                                                13  H            0.5508    1.7612    2.2016
   12  H                                                14  H            0.3355    3.2179    1.2193
   13  H                                                16  H            0.3474    2.9730   -1.3348
   14  H                                                17  H           -1.0225    2.0598   -1.2232
   15  Br                                                3  Br          -1.8845   -0.3192    0.0088
   16  N                                                 6  N            1.0592   -1.2983   -2.1137
   17  N                                                15  N           -0.0008    2.0198   -1.2300


 Interatomic Distance Matrix (Angstrom)
 --------------------------------------

   1)     0.000
   2)     2.108   0.000
   3)     2.058   3.905   0.000
   4)     1.556   1.102   2.952   0.000
   5)     1.461   2.658   2.816   2.485   0.000
   6)     2.621   3.488   3.759   3.508   1.162   0.000
   7)     1.536   2.797   2.900   2.598   2.464   3.435   0.000
   8)     2.159   2.567   3.902   2.811   2.781   3.581   1.098   0.000
   9)     2.173   3.241   3.006   2.880   3.405   4.453   1.092   1.785   0.000
  10)     2.173   3.752   3.070   3.535   2.653   3.404   1.092   1.780   1.778   0.000
  11)     2.588   2.158   3.408   1.542   3.867   4.965   3.064   3.329   2.763   4.093
          0.000
  12)     2.859   3.076   2.937   2.185   4.206   5.339   3.398   3.949   2.926   4.283
          1.096   0.000
  13)     2.879   2.490   3.882   2.208   4.215   5.314   2.768   2.874   2.249   3.812
          1.096   1.781   0.000
  14)     3.519   2.506   4.348   2.160   4.641   5.659   4.074   4.172   3.802   5.130
          1.096   1.777   1.770   0.000
  15)     2.464   2.071   3.249   1.469   2.827   3.594   3.859   4.141   4.216   4.634
          2.541   2.862   3.485   2.747   0.000
  16)     3.360   2.355   4.198   2.060   3.723   4.400   4.630   4.763   4.911   5.495
          2.778   3.218   3.744   2.566   1.020   0.000
  17)     2.757   2.936   2.814   2.060   3.247   4.050   4.184   4.688   4.401   4.874
          2.753   2.664   3.781   3.025   1.023   1.650   0.000

 Min. Distance =    1.0202
 Max. Distance =    5.6594



 =====================================
 S Y M M E T R Y ,   E L E C T R O N S
 =====================================
  
 Symmetry: NOSYM

 Irreducible Representations, including subspecies
 -------------------------------------------------
 A


 Configuration of Valence Electrons
 ==================================
 ( determined in the SCF procedure )

 Total:   88

 Net Charge: 0 (Nuclei minus Electrons)

 Aufbau principle for MO occupations will be applied through SCF cycle no.     100
 Thereafter, the program will assign electrons to MOs that are spatially
 similar to the occupied MOs in a "reference" cycle ("KeepOrbitals").
 The reference cycle is always the PREVIOUS cycle: it will evolve with
 the SCF procedure.
 ***************************************************************************************************



                                      ****************************************
                                      *  B U I L D : (Fragments, Functions)  *
                                      ****************************************
  



 =======
 S F O s  ***  (Symmetrized Fragment Orbitals)  ***
 =======
  
 SFOs are linear combinations of (valence) Fragment Orbitals (FOs), such that the SFOs transform as the
 irreducible representations of the (molecular) symmetry group. Each SFO is therefore characterized by
 an irrep of the molecule and by a few (or only one) generating FOs.
 The SFOs constitute a symmetry-adapted basis for the Fock matrix. The MO eigenvector coefficients in
 this basis provide a direct interpretation of the MOs in terms of Frontier Orbital Theory.

 The SFOs are combined with auxiliary Core Functions (CFs) to ensure orthogonalization on the (frozen)
 Core Orbitals (COs). The Core-orthogonalized SFOs (CSFOs) constitute the true Fock basis.

 The FOs, and hence also the (C)SFOs are combinations of the elementary basis functions (BAS). The basis
 functions that participate in the description of the SFOs depend on the irrep. The indices of the
 involved functions are printed below for each irrep.
 (The complete list of primitive basis functions is printed in another section)

 Total nr. of (C)SFOs (summation over all irreps) :   337

 NOTE: a (C)SFO that is defined as a combination of more than one FO is usually NOT normalized.



                                       === A ===
 Nr. of SFOs :  337
 Cartesian basis functions that participate in this irrep (total number =   381) :
      1     2     3     4     5     6     9    12     7    10
     13     8    11    14    15    16    17    18    19    20
     21    22    23    24    25    26    27    28    29    30
     31    32    33    34    35    36    39    42    37    40
     43    38    41    44    45    46    47    48    49    50
     51    52    53    54    55    56    57    58    59    60
     61    62    63    64    65    66    69    72    67    70
     73    68    71    74    75    76    77    78    79    80
     81    82    83    84    85    86    87    88    89    90
     91    92    93    94    95    96    99   102    97   100
    103    98   101   104   105   106   107   108   109   110
    111   112   113   114   115   116   117   118   119   120
    121   122   123   124   125   126   129   132   127   130
    133   128   131   134   135   136   137   138   139   140
    141   142   143   144   145   146   147   148   149   150
    151   152   153   154   155   156   157   158   159   160
    161   162   163   164   165   166   167   168   169   170
    171   172   173   174   175   176   177   178   179   180
    181   182   183   184   185   186   187   188   189   190
    191   192   193   194   195   196   197   198   199   200
    201   202   203   204   205   206   207   208   209   210
    211   212   213   214   215   216   217   218   219   220
    221   222   223   224   225   226   227   228   229   230
    231   232   233   234   235   236   237   238   239   240
    241   242   243   244   245   246   247   248   249   250
    251   252   253   254   255   256   257   258   259   260
    261   268   269   294   295   296   262   265   270   273
    297   300   303   263   266   271   274   298   301   304
    264   267   272   275   299   302   305   276   282   288
    306   277   283   289   307   278   284   290   308   279
    285   291   309   280   286   292   310   281   287   293
    311   312   313   314   315   316   317   318   319   320
    321   322   323   324   325   326   327   330   333   328
    331   334   329   332   335   336   337   338   339   340
    341   342   343   344   345   346   347   348   349   350
    351   352   353   354   355   356   357   360   363   358
    361   364   359   362   365   366   367   368   369   370
    371   372   373   374   375   376   377   378   379   380
    381

    SFO  (index         Fragment          Generating    Expansion in Fragment Orbitals
  indx  incl.CFs)   Occup   Orb.Energy   FragmentType  Coeff.   Orbital     on Fragment
 --------------------------------------------------------------------------------------
     1       1      2.000     -10.066 au  C             1.00      1 S               1
                        (    -273.921 eV)
     2       2      2.000      -0.501 au  C             1.00      2 S               1
                        (     -13.620 eV)
     3       3       --         0.373 au  C             1.00      3 S               1
                        (      10.158 eV)
     4       4       --         5.405 au  C             1.00      4 S               1
                        (     147.073 eV)
     5       5       --        49.848 au  C             1.00      5 S               1
                        (    1356.422 eV)
     6       6      0.667      -0.193 au  C             1.00      1 P:x             1
                        (      -5.239 eV)
     7       7       --         0.169 au  C             1.00      2 P:x             1
                        (       4.589 eV)
     8       8       --         2.013 au  C             1.00      3 P:x             1
                        (      54.789 eV)
     9       9      0.667      -0.193 au  C             1.00      1 P:y             1
                        (      -5.239 eV)
    10      10       --         0.169 au  C             1.00      2 P:y             1
                        (       4.589 eV)
    11      11       --         2.013 au  C             1.00      3 P:y             1
                        (      54.789 eV)
    12      12      0.667      -0.193 au  C             1.00      1 P:z             1
                        (      -5.239 eV)
    13      13       --         0.169 au  C             1.00      2 P:z             1
                        (       4.589 eV)
    14      14       --         2.013 au  C             1.00      3 P:z             1
                        (      54.789 eV)
    15      15       --         1.243 au  C             1.00      1 D:z2            1
                        (      33.824 eV)
    16      16       --         1.243 au  C             1.00      1 D:x2-y2         1
                        (      33.824 eV)
    17      17       --         1.243 au  C             1.00      1 D:xy            1
                        (      33.824 eV)
    18      18       --         1.243 au  C             1.00      1 D:xz            1
                        (      33.824 eV)
    19      19       --         1.243 au  C             1.00      1 D:yz            1
                        (      33.824 eV)
    20      20       --         4.016 au  C             1.00      1 F:z3            1
                        (     109.271 eV)
    21      21       --         4.016 au  C             1.00      1 F:z             1
                        (     109.271 eV)
    22      22       --         4.016 au  C             1.00      1 F:xyz           1
                        (     109.271 eV)
    23      23       --         4.016 au  C             1.00      1 F:z2x           1
                        (     109.271 eV)
    24      24       --         4.016 au  C             1.00      1 F:z2y           1
                        (     109.271 eV)
    25      25       --         4.016 au  C             1.00      1 F:x             1
                        (     109.271 eV)
    26      26       --         4.016 au  C             1.00      1 F:y             1
                        (     109.271 eV)
    27      27      2.000     -10.066 au  C             1.00      1 S               2
                        (    -273.921 eV)
    28      28      2.000      -0.501 au  C             1.00      2 S               2
                        (     -13.620 eV)
    29      29       --         0.373 au  C             1.00      3 S               2
                        (      10.158 eV)
    30      30       --         5.405 au  C             1.00      4 S               2
                        (     147.073 eV)
    31      31       --        49.848 au  C             1.00      5 S               2
                        (    1356.422 eV)
    32      32      0.667      -0.193 au  C             1.00      1 P:x             2
                        (      -5.239 eV)
    33      33       --         0.169 au  C             1.00      2 P:x             2
                        (       4.589 eV)
    34      34       --         2.013 au  C             1.00      3 P:x             2
                        (      54.789 eV)
    35      35      0.667      -0.193 au  C             1.00      1 P:y             2
                        (      -5.239 eV)
    36      36       --         0.169 au  C             1.00      2 P:y             2
                        (       4.589 eV)
    37      37       --         2.013 au  C             1.00      3 P:y             2
                        (      54.789 eV)
    38      38      0.667      -0.193 au  C             1.00      1 P:z             2
                        (      -5.239 eV)
    39      39       --         0.169 au  C             1.00      2 P:z             2
                        (       4.589 eV)
    40      40       --         2.013 au  C             1.00      3 P:z             2
                        (      54.789 eV)
    41      41       --         1.243 au  C             1.00      1 D:z2            2
                        (      33.824 eV)
    42      42       --         1.243 au  C             1.00      1 D:x2-y2         2
                        (      33.824 eV)
    43      43       --         1.243 au  C             1.00      1 D:xy            2
                        (      33.824 eV)
    44      44       --         1.243 au  C             1.00      1 D:xz            2
                        (      33.824 eV)
    45      45       --         1.243 au  C             1.00      1 D:yz            2
                        (      33.824 eV)
    46      46       --         4.016 au  C             1.00      1 F:z3            2
                        (     109.271 eV)
    47      47       --         4.016 au  C             1.00      1 F:z             2
                        (     109.271 eV)
    48      48       --         4.016 au  C             1.00      1 F:xyz           2
                        (     109.271 eV)
    49      49       --         4.016 au  C             1.00      1 F:z2x           2
                        (     109.271 eV)
    50      50       --         4.016 au  C             1.00      1 F:z2y           2
                        (     109.271 eV)
    51      51       --         4.016 au  C             1.00      1 F:x             2
                        (     109.271 eV)
    52      52       --         4.016 au  C             1.00      1 F:y             2
                        (     109.271 eV)
    53      53      2.000     -10.066 au  C             1.00      1 S               3
                        (    -273.921 eV)
    54      54      2.000      -0.501 au  C             1.00      2 S               3
                        (     -13.620 eV)
    55      55       --         0.373 au  C             1.00      3 S               3
                        (      10.158 eV)
    56      56       --         5.405 au  C             1.00      4 S               3
                        (     147.073 eV)
    57      57       --        49.848 au  C             1.00      5 S               3
                        (    1356.422 eV)
    58      58      0.667      -0.193 au  C             1.00      1 P:x             3
                        (      -5.239 eV)
    59      59       --         0.169 au  C             1.00      2 P:x             3
                        (       4.589 eV)
    60      60       --         2.013 au  C             1.00      3 P:x             3
                        (      54.789 eV)
    61      61      0.667      -0.193 au  C             1.00      1 P:y             3
                        (      -5.239 eV)
    62      62       --         0.169 au  C             1.00      2 P:y             3
                        (       4.589 eV)
    63      63       --         2.013 au  C             1.00      3 P:y             3
                        (      54.789 eV)
    64      64      0.667      -0.193 au  C             1.00      1 P:z             3
                        (      -5.239 eV)
    65      65       --         0.169 au  C             1.00      2 P:z             3
                        (       4.589 eV)
    66      66       --         2.013 au  C             1.00      3 P:z             3
                        (      54.789 eV)
    67      67       --         1.243 au  C             1.00      1 D:z2            3
                        (      33.824 eV)
    68      68       --         1.243 au  C             1.00      1 D:x2-y2         3
                        (      33.824 eV)
    69      69       --         1.243 au  C             1.00      1 D:xy            3
                        (      33.824 eV)
    70      70       --         1.243 au  C             1.00      1 D:xz            3
                        (      33.824 eV)
    71      71       --         1.243 au  C             1.00      1 D:yz            3
                        (      33.824 eV)
    72      72       --         4.016 au  C             1.00      1 F:z3            3
                        (     109.271 eV)
    73      73       --         4.016 au  C             1.00      1 F:z             3
                        (     109.271 eV)
    74      74       --         4.016 au  C             1.00      1 F:xyz           3
                        (     109.271 eV)
    75      75       --         4.016 au  C             1.00      1 F:z2x           3
                        (     109.271 eV)
    76      76       --         4.016 au  C             1.00      1 F:z2y           3
                        (     109.271 eV)
    77      77       --         4.016 au  C             1.00      1 F:x             3
                        (     109.271 eV)
    78      78       --         4.016 au  C             1.00      1 F:y             3
                        (     109.271 eV)
    79      79      2.000     -10.066 au  C             1.00      1 S               4
                        (    -273.921 eV)
    80      80      2.000      -0.501 au  C             1.00      2 S               4
                        (     -13.620 eV)
    81      81       --         0.373 au  C             1.00      3 S               4
                        (      10.158 eV)
    82      82       --         5.405 au  C             1.00      4 S               4
                        (     147.073 eV)
    83      83       --        49.848 au  C             1.00      5 S               4
                        (    1356.422 eV)
    84      84      0.667      -0.193 au  C             1.00      1 P:x             4
                        (      -5.239 eV)
    85      85       --         0.169 au  C             1.00      2 P:x             4
                        (       4.589 eV)
    86      86       --         2.013 au  C             1.00      3 P:x             4
                        (      54.789 eV)
    87      87      0.667      -0.193 au  C             1.00      1 P:y             4
                        (      -5.239 eV)
    88      88       --         0.169 au  C             1.00      2 P:y             4
                        (       4.589 eV)
    89      89       --         2.013 au  C             1.00      3 P:y             4
                        (      54.789 eV)
    90      90      0.667      -0.193 au  C             1.00      1 P:z             4
                        (      -5.239 eV)
    91      91       --         0.169 au  C             1.00      2 P:z             4
                        (       4.589 eV)
    92      92       --         2.013 au  C             1.00      3 P:z             4
                        (      54.789 eV)
    93      93       --         1.243 au  C             1.00      1 D:z2            4
                        (      33.824 eV)
    94      94       --         1.243 au  C             1.00      1 D:x2-y2         4
                        (      33.824 eV)
    95      95       --         1.243 au  C             1.00      1 D:xy            4
                        (      33.824 eV)
    96      96       --         1.243 au  C             1.00      1 D:xz            4
                        (      33.824 eV)
    97      97       --         1.243 au  C             1.00      1 D:yz            4
                        (      33.824 eV)
    98      98       --         4.016 au  C             1.00      1 F:z3            4
                        (     109.271 eV)
    99      99       --         4.016 au  C             1.00      1 F:z             4
                        (     109.271 eV)
   100     100       --         4.016 au  C             1.00      1 F:xyz           4
                        (     109.271 eV)
   101     101       --         4.016 au  C             1.00      1 F:z2x           4
                        (     109.271 eV)
   102     102       --         4.016 au  C             1.00      1 F:z2y           4
                        (     109.271 eV)
   103     103       --         4.016 au  C             1.00      1 F:x             4
                        (     109.271 eV)
   104     104       --         4.016 au  C             1.00      1 F:y             4
                        (     109.271 eV)
   105     105      2.000     -10.066 au  C             1.00      1 S               5
                        (    -273.921 eV)
   106     106      2.000      -0.501 au  C             1.00      2 S               5
                        (     -13.620 eV)
   107     107       --         0.373 au  C             1.00      3 S               5
                        (      10.158 eV)
   108     108       --         5.405 au  C             1.00      4 S               5
                        (     147.073 eV)
   109     109       --        49.848 au  C             1.00      5 S               5
                        (    1356.422 eV)
   110     110      0.667      -0.193 au  C             1.00      1 P:x             5
                        (      -5.239 eV)
   111     111       --         0.169 au  C             1.00      2 P:x             5
                        (       4.589 eV)
   112     112       --         2.013 au  C             1.00      3 P:x             5
                        (      54.789 eV)
   113     113      0.667      -0.193 au  C             1.00      1 P:y             5
                        (      -5.239 eV)
   114     114       --         0.169 au  C             1.00      2 P:y             5
                        (       4.589 eV)
   115     115       --         2.013 au  C             1.00      3 P:y             5
                        (      54.789 eV)
   116     116      0.667      -0.193 au  C             1.00      1 P:z             5
                        (      -5.239 eV)
   117     117       --         0.169 au  C             1.00      2 P:z             5
                        (       4.589 eV)
   118     118       --         2.013 au  C             1.00      3 P:z             5
                        (      54.789 eV)
   119     119       --         1.243 au  C             1.00      1 D:z2            5
                        (      33.824 eV)
   120     120       --         1.243 au  C             1.00      1 D:x2-y2         5
                        (      33.824 eV)
   121     121       --         1.243 au  C             1.00      1 D:xy            5
                        (      33.824 eV)
   122     122       --         1.243 au  C             1.00      1 D:xz            5
                        (      33.824 eV)
   123     123       --         1.243 au  C             1.00      1 D:yz            5
                        (      33.824 eV)
   124     124       --         4.016 au  C             1.00      1 F:z3            5
                        (     109.271 eV)
   125     125       --         4.016 au  C             1.00      1 F:z             5
                        (     109.271 eV)
   126     126       --         4.016 au  C             1.00      1 F:xyz           5
                        (     109.271 eV)
   127     127       --         4.016 au  C             1.00      1 F:z2x           5
                        (     109.271 eV)
   128     128       --         4.016 au  C             1.00      1 F:z2y           5
                        (     109.271 eV)
   129     129       --         4.016 au  C             1.00      1 F:x             5
                        (     109.271 eV)
   130     130       --         4.016 au  C             1.00      1 F:y             5
                        (     109.271 eV)
   131     131      1.000      -0.240 au  H             1.00      1 S               6
                        (      -6.532 eV)
   132     132       --         0.088 au  H             1.00      2 S               6
                        (       2.394 eV)
   133     133       --         1.502 au  H             1.00      3 S               6
                        (      40.869 eV)
   134     134       --         0.406 au  H             1.00      1 P:x             6
                        (      11.051 eV)
   135     135       --         0.406 au  H             1.00      1 P:y             6
                        (      11.051 eV)
   136     136       --         0.406 au  H             1.00      1 P:z             6
                        (      11.051 eV)
   137     137       --         2.569 au  H             1.00      1 D:z2            6
                        (      69.917 eV)
   138     138       --         2.569 au  H             1.00      1 D:x2-y2         6
                        (      69.917 eV)
   139     139       --         2.569 au  H             1.00      1 D:xy            6
                        (      69.917 eV)
   140     140       --         2.569 au  H             1.00      1 D:xz            6
                        (      69.917 eV)
   141     141       --         2.569 au  H             1.00      1 D:yz            6
[...]
                                   11.13%     1 P:x            -5.239  0.67     5 C
                                   10.91%     1 S              -6.532  1.00    12 H
                                   10.11%     1 P:z            -5.239  0.67     4 C
                                    7.31%     2 P:z             4.589  0.00     4 C
                                   -7.01%     3 S              14.073  0.00    16 N
                                    6.47%     2 P:z             4.589  0.00     3 C
                                    6.08%     2 S             -13.620  2.00     3 C
                                    5.89%     1 S              -6.532  1.00     8 H
                                   -5.40%     2 P:x             4.589  0.00     5 C
                                    5.08%     1 S              -6.532  1.00    13 H
                                   -4.83%     2 S               2.394  0.00     8 H
                                   -4.20%     2 S               2.394  0.00    12 H
                                    3.85%     1 S              -6.532  1.00     9 H
                                   -3.52%     2 S               2.394  0.00    10 H
                                    3.41%     1 P:x            -5.239  0.67     1 C
                                    3.17%     4 P:z             3.720  0.00    15 Br
                                   -3.11%     2 P:y             4.589  0.00     5 C
                                    3.06%     2 P:z             4.589  0.00     1 C
                                    2.89%     2 S               2.394  0.00     6 H
                                    2.83%     2 S             -13.620  2.00     2 C
                                   -2.74%     2 P:y             7.649  0.00    17 N
                                    2.48%     2 P:y             4.589  0.00     3 C
                                    2.46%     1 S              -6.532  1.00    14 H
                                    2.45%     2 P:z             4.589  0.00     2 C
                                   -2.28%     3 S              10.158  0.00     2 C
                                    1.77%     1 S              -6.532  1.00     6 H
                                   -1.75%     2 P:x             4.589  0.00     2 C
                                    1.70%     1 P:y            -7.062  1.00    17 N
                                    1.64%     3 S              10.158  0.00     3 C
                                    1.56%     2 P:z             4.589  0.00     5 C
                                    1.48%     2 S             -13.620  2.00     1 C
                                    1.42%     1 P:z            -5.239  0.67     5 C
                                    1.32%     1 P:z            -5.239  0.67     3 C
                                    1.21%     1 P:y            -5.239  0.67     5 C
                                    1.18%     1 P:x            -5.239  0.67     3 C
                                   -1.17%     2 P:x             4.589  0.00     1 C
                                   -1.17%     2 P:y             4.589  0.00     4 C
                                    1.14%     1 P:z            -5.239  0.67     2 C
                                   -1.06%     2 P:y             4.589  0.00     1 C
       2.357  0.00    57 A         13.95%     1 S              -6.532  1.00    12 H
                                   10.86%     1 S              -6.532  1.00    14 H
                                   10.72%     1 S              -6.532  1.00    13 H
                                    7.99%     1 P:y            -5.239  0.67     5 C
                                    7.92%     1 S              -6.532  1.00    10 H
                                    4.36%     1 S              -6.532  1.00     8 H
                                    4.29%     1 S              -6.532  1.00     6 H
                                   -4.10%     3 S              14.073  0.00    16 N
                                   -4.05%     2 P:x             7.649  0.00    17 N
                                    3.95%     2 S               2.394  0.00     8 H
                                    3.89%     2 S               2.394  0.00    10 H
                                   -3.89%     2 S               2.394  0.00    12 H
                                   -3.73%     3 S              10.158  0.00     2 C
                                    3.72%     2 S             -13.620  2.00     2 C
                                    3.69%     1 P:x            -7.062  1.00    17 N
                                    3.69%     1 P:x            -5.239  0.67     3 C
                                    3.62%     2 P:y             4.589  0.00     3 C
                                    3.60%     2 P:z             4.589  0.00     4 C
                                   -3.39%     2 P:y             4.589  0.00     5 C
                                    3.32%     4 P:x             3.720  0.00    15 Br
                                    2.94%     2 P:z             4.589  0.00     1 C
                                    2.81%     2 P:z             4.589  0.00     3 C
                                    2.64%     1 S              -6.532  1.00    11 H
                                   -2.59%     2 P:y             4.589  0.00     4 C
                                    1.98%     2 S               2.394  0.00    13 H
                                    1.94%     2 P:x             4.589  0.00     3 C
                                    1.70%     2 P:z             4.589  0.00     5 C
                                   -1.53%     2 S               2.394  0.00    14 H
                                    1.47%     2 P:x             4.589  0.00     4 C
                                    1.16%     2 S             -13.620  2.00     3 C
                                    1.00%     3 S              40.869  0.00    13 H

 Energy gradients wrt nuclear displacements
 ==========================================

     Atom      Cartesian (a.u./angstrom)
                 X         Y         Z
 ----------------------------------------
     1 C    -0.000043  0.000023  0.000018
     2 H    -0.000007 -0.000031 -0.000003
     3 Br   -0.000011  0.000036  0.000001
     4 C     0.000034 -0.000007 -0.000003
     5 C    -0.000018 -0.000032  0.000016
     6 N    -0.000032 -0.000048 -0.000008
     7 C    -0.000036 -0.000054  0.000012
     8 H    -0.000018 -0.000004  0.000030
     9 H    -0.000018  0.000033  0.000022
    10 H    -0.000055  0.000035  0.000018
    11 C     0.000044  0.000031 -0.000018
    12 H     0.000017  0.000034 -0.000011
    13 H     0.000009  0.000005 -0.000009
    14 H     0.000039 -0.000005 -0.000024
    15 N     0.000021 -0.000007 -0.000006
    16 H     0.000049 -0.000014 -0.000022
    17 H     0.000027  0.000005 -0.000014
 ----------------------------------------



 =======================================================================
 Electrostatic potential at the Nuclei due to electrons and other nuclei
 =======================================================================
  
         Atom                  Potential
         ----                  ---------
     1)   C                  14.67392025
     2)   H                   1.08650066
     3)   Br                180.52600316
     4)   C                  14.71596832
     5)   C                  14.76166292
     6)   N                  18.43651315
     7)   C                  14.75845713
     8)   H                   1.08143714
     9)   H                   1.08610557
    10)   H                   1.08828977
    11)   C                  14.77685745
    12)   H                   1.10032606
    13)   H                   1.09803689
    14)   H                   1.09807339
    15)   N                  18.41844002
    16)   H                   1.04308847
    17)   H                   1.04596063
 Mulliken charges used for AMS results%charges...


    =====================
     CALCULATION RESULTS
    =====================

Energy (hartree)            -3.38342281

Gradients (hartree/bohr)
  Index   Atom            d/dx            d/dy            d/dz
      1      C   -0.0000229141    0.0000123674    0.0000097533
      2      H   -0.0000035911   -0.0000162811   -0.0000014876
      3     Br   -0.0000059824    0.0000192590    0.0000004001
      4      C    0.0000181831   -0.0000035397   -0.0000015808
      5      C   -0.0000094907   -0.0000171223    0.0000082586
      6      N   -0.0000170679   -0.0000251841   -0.0000041165
      7      C   -0.0000192978   -0.0000283783    0.0000065081
      8      H   -0.0000094696   -0.0000022273    0.0000161346
      9      H   -0.0000095844    0.0000175515    0.0000113951
     10      H   -0.0000292765    0.0000183084    0.0000094699
     11      C    0.0000230691    0.0000163862   -0.0000097890
     12      H    0.0000090029    0.0000178134   -0.0000056380
     13      H    0.0000047376    0.0000024419   -0.0000045615
     14      H    0.0000204795   -0.0000026802   -0.0000128317
     15      N    0.0000110400   -0.0000036670   -0.0000029810
     16      H    0.0000259178   -0.0000076107   -0.0000117561
     17      H    0.0000142447    0.0000025630   -0.0000071775


--------------
Atomic charges
--------------
  Index   Atom    Charge
      1      C    0.0793
      2      H   -0.1473
      3     Br   -0.2349
      4      C    0.3600
      5      C    0.1585
      6      N   -0.2548
      7      C    0.7189
      8      H   -0.2065
      9      H   -0.1890
     10      H   -0.1899
     11      C    0.7036
     12      H   -0.1930
     13      H   -0.2304
     14      H   -0.2268
     15      N   -0.0403
     16      H   -0.0669
     17      H   -0.0403


Dipole moment vector    (Debye):     0.23306105    2.97236443    4.04460566
              magnitude (Debye):     5.02474902


-----------------------
Molecular orbitals info
-----------------------
n orbitals:              337
n spin:                    1

Note: only printing virtual orbitals with
      energy smaller than HOMO + 100. eV

HOMO (eV):              -6.0271
LUMO (eV):              -2.6396
HOMO-LUMO gap (eV):      3.3875

   Index   Energy (eV)    Occupation
     219       93.8800         0.000       
     218       93.1404         0.000       
     217       92.8629         0.000       
     216       91.6674         0.000       
     215       91.0492         0.000       
     214       90.2028         0.000       
     213       88.5692         0.000       
     212       87.4964         0.000       
     211       86.8947         0.000       
     210       86.5720         0.000       
     209       85.3466         0.000       
     208       84.4910         0.000       
     207       83.4986         0.000       
     206       83.0140         0.000       
     205       82.2651         0.000       
     204       81.9835         0.000       
     203       81.1074         0.000       
     202       80.8860         0.000       
     201       80.4535         0.000       
     200       79.9854         0.000       
     199       79.5601         0.000       
     198       79.2622         0.000       
     197       78.3181         0.000       
     196       77.7094         0.000       
     195       77.3741         0.000       
     194       76.7471         0.000       
     193       76.1625         0.000       
     192       75.5955         0.000       
     191       75.2292         0.000       
     190       74.6998         0.000       
     189       73.7861         0.000       
     188       72.8426         0.000       
     187       72.6873         0.000       
     186       71.1209         0.000       
     185       70.9548         0.000       
     184       70.2474         0.000       
     183       68.5670         0.000       
     182       67.4709         0.000       
     181       66.9698         0.000       
     180       66.2499         0.000       
     179       65.4024         0.000       
     178       64.9788         0.000       
     177       63.6767         0.000       
     176       63.4642         0.000       
     175       63.0553         0.000       
     174       61.0533         0.000       
     173       60.8851         0.000       
     172       59.7140         0.000       
     171       57.8223         0.000       
     170       57.2623         0.000       
     169       56.9537         0.000       
     168       56.4594         0.000       
     167       56.0197         0.000       
     166       54.5132         0.000       
     165       54.3458         0.000       
     164       53.9898         0.000       
     163       52.3573         0.000       
     162       51.6216         0.000       
     161       51.1505         0.000       
     160       50.4821         0.000       
     159       50.0784         0.000       
     158       49.3518         0.000       
     157       48.8270         0.000       
     156       48.1729         0.000       
     155       47.4283         0.000       
     154       46.7756         0.000       
     153       45.9191         0.000       
     152       45.3627         0.000       
     151       44.8284         0.000       
     150       43.8444         0.000       
     149       43.4046         0.000       
     148       42.6220         0.000       
     147       41.5878         0.000       
     146       41.2710         0.000       
     145       39.9510         0.000       
     144       39.7795         0.000       
     143       39.1032         0.000       
     142       38.6993         0.000       
     141       38.1836         0.000       
     140       37.8826         0.000       
     139       37.0793         0.000       
     138       36.5226         0.000       
     137       35.8187         0.000       
     136       35.5694         0.000       
     135       34.5805         0.000       
     134       34.2935         0.000       
     133       33.8594         0.000       
     132       33.4044         0.000       
     131       32.8306         0.000       
     130       32.5829         0.000       
     129       31.7922         0.000       
     128       31.5516         0.000       
     127       31.4503         0.000       
     126       30.9098         0.000       
     125       30.3059         0.000       
     124       30.1729         0.000       
     123       29.8497         0.000       
     122       29.5675         0.000       
     121       28.6678         0.000       
     120       28.5408         0.000       
     119       28.4547         0.000       
     118       28.3765         0.000       
     117       27.9303         0.000       
     116       26.6088         0.000       
     115       26.4424         0.000       
     114       25.9438         0.000       
     113       25.2940         0.000       
     112       24.5162         0.000       
     111       24.3475         0.000       
     110       23.8946         0.000       
     109       23.2884         0.000       
     108       23.0709         0.000       
     107       22.7763         0.000       
     106       22.1482         0.000       
     105       21.9507         0.000       
     104       20.4311         0.000       
     103       20.3238         0.000       
     102       19.9471         0.000       
     101       18.9273         0.000       
     100       17.8740         0.000       
      99       17.7000         0.000       
      98       17.2614         0.000       
      97       16.5940         0.000       
      96       15.3111         0.000       
      95       15.0713         0.000       
      94       14.2395         0.000       
      93       14.1240         0.000       
      92       13.3522         0.000       
      91       13.1327         0.000       
      90       12.9344         0.000       
      89       12.1312         0.000       
      88       11.6569         0.000       
      87       11.2359         0.000       
      86       11.0542         0.000       
      85       10.6811         0.000       
      84       10.5691         0.000       
      83       10.3690         0.000       
      82       10.0541         0.000       
      81        9.8334         0.000       
      80        9.3034         0.000       
      79        8.9509         0.000       
      78        8.6538         0.000       
      77        8.5099         0.000       
      76        8.0077         0.000       
      75        7.7950         0.000       
      74        7.3276         0.000       
      73        6.9851         0.000       
      72        6.6510         0.000       
      71        6.4837         0.000       
      70        5.9048         0.000       
      69        5.8618         0.000       
      68        5.3954         0.000       
      67        5.2188         0.000       
      66        5.0843         0.000       
      65        4.7847         0.000       
      64        4.5805         0.000       
      63        4.5212         0.000       
      62        4.1431         0.000       
      61        3.6358         0.000       
      60        3.4764         0.000       
      59        3.2077         0.000       
      58        2.8129         0.000       
      57        2.3565         0.000       
      56        2.0601         0.000       
      55        1.8712         0.000       
      54        1.5372         0.000       
      53        1.2423         0.000       
      52        1.1694         0.000       
      51        0.5372         0.000       
      50        0.4315         0.000       
      49        0.1369         0.000       
      48       -0.0878         0.000       
      47       -0.4434         0.000       
      46       -0.6863         0.000       
      45       -2.6396         0.000 < LUMO
      44       -6.0271         2.000 < HOMO
      43       -6.9837         2.000       
      42       -7.0965         2.000       
      41       -8.0136         2.000       
      40       -8.0930         2.000       
      39       -8.5803         2.000       
      38       -8.9168         2.000       
      37       -9.6114         2.000       
      36       -9.7214         2.000       
      35      -10.0825         2.000       
      34      -10.2618         2.000       
      33      -10.7437         2.000       
      32      -11.1469         2.000       
      31      -11.8416         2.000       
      30      -12.3390         2.000       
      29      -13.3128         2.000       
      28      -15.2053         2.000       
      27      -17.0827         2.000       
      26      -18.3458         2.000       
      25      -19.3328         2.000       
      24      -21.0099         2.000       
      23      -22.3507         2.000       
      22      -22.9759         2.000       
      21      -65.8212         2.000       
      20      -65.8263         2.000       
      19      -66.0859         2.000       
      18      -66.0869         2.000       
      17      -66.1744         2.000       
      16     -172.4043         2.000       
      15     -172.4061         2.000       
      14     -172.7569         2.000       
      13     -236.2945         2.000       
      12     -270.2623         2.000       
      11     -270.7611         2.000       
      10     -271.1069         2.000       
       9     -271.8473         2.000       
       8     -273.0608         2.000       
       7     -381.5017         2.000       
       6     -381.5888         2.000       
       5    -1526.5126         2.000       
       4    -1526.5146         2.000       
       3    -1526.6344         2.000       
       2    -1729.6435         2.000       
       1   -13296.1267         2.000       

AMS application finished. Exiting.
NORMAL TERMINATION
     Total cpu time:     891.33
  Total system time:       3.94
 Total elapsed time:     898.13
NORMAL TERMINATION
