
 *******************************************************************************
 *                                                                             *
 *  --------------------------------                                           *
 *   Amsterdam Modeling Suite (AMS)              2026.103                      *
 *  --------------------------------                                           *
 *                                               r260501 2026-05-01 873454b5   *
 *                                                                             *
 *                                                                             *
 *                              =================                              *
 *                              |               |                              *
 *                              |     A M S     |                              *
 *                              |               |                              *
 *                              =================                              *
 *                                                                             *
 *                                                                             *
 *   Online information and documentation:  https://www.scm.com/support/       *
 *   E-mail:  support@scm.com   info@scm.com                                   *
 *                                                                             *
 *   Scientific publications using AMS results must be properly referenced     *
 *   See the User Manuals (or the web site) for recommended citations          *
 *   The terms and conditions of the End User License Agreement apply to       *
 *   the use of AMS, https://www.scm.com/license-terms/                        *
 *                                                                             *
 **********************  x86_64_linux_intel / intelmpi  ************************
 
 Licensed to: Jong-June Jeon / University of Seoul 2026-05-13 16:10:32
 SCM User ID: u30731
  
 AMS 2026.103  RunTime: Jun01-2026 02:27:01  ShM Nodes: 1  Procs: 1

 AMS jobname: c3_eda
 AMS jobid  : 1498684405

 Start   directory: /gpfs/home1/yeseo1ee/projects/eda-asm-prediction/adf_outputs/batch_001/dipolar_002400/
 Results directory: /gpfs/home1/yeseo1ee/projects/eda-asm-prediction/adf_outputs/batch_001/dipolar_002400/c3_eda.results/
 Scratch directory: /tmp/amstmp_c3_eda_kid0.1498684405/

 RNG seed: 1371942620 -1608284044 -166959088 -121387036 -64025501 -720945778 -1413192139 -850190105



                      ************************************************************************
                      *  ADF 2026.103  RunTime: Jun01-2026 02:27:02  ShM Nodes: 1  Procs: 1  *
                      ************************************************************************
  

       ****************************
       * SINGLE POINT CALCULATION *
       ****************************

--------
Geometry
--------
Formula: C18H16F6N4O3
Atoms
  Index Symbol   x (angstrom)   y (angstrom)   z (angstrom)
      1      C     0.22846000     1.29197000    -0.23331000 adf.f=fA
      2      C     0.21810000     0.05367000    -0.10491000 adf.f=fA
      3      C     1.16082000    -1.10414000    -0.07815000 adf.f=fA
      4      C     0.67776000    -2.31823000    -0.92005000 adf.f=fA
      5      F     1.71111000    -3.06541000    -1.33424000 adf.f=fA
      6      F    -0.13357000    -3.14099000    -0.23767000 adf.f=fA
      7      F     0.01228000    -1.91155000    -2.01065000 adf.f=fA
      8      C     1.34813000    -1.55689000     1.39437000 adf.f=fA
      9      F     2.10171000    -2.66591000     1.46622000 adf.f=fA
     10      F     1.96177000    -0.60506000     2.11136000 adf.f=fA
     11      F     0.18620000    -1.81848000     2.00718000 adf.f=fA
     12      C     2.54853000    -0.61088000    -0.59658000 adf.f=fA
     13      C     2.65507000    -0.21232000    -2.07454000 adf.f=fA
     14      C     1.65744000     0.78853000    -2.67175000 adf.f=fA
     15      C     1.60296000     2.21356000    -2.12014000 adf.f=fA
     16      C     1.10967000     2.42907000    -0.65062000 adf.f=fA
     17      C     0.45084000     3.76461000    -0.62711000 adf.f=fA
     18      N     0.01695000     4.83910000    -0.65559000 adf.f=fA
     19      O     2.25076000     2.49579000     0.18697000 adf.f=fA
     20      C     1.98579000     2.70418000     1.57256000 adf.f=fA
     21      H     3.28377000    -1.40425000    -0.39990000 adf.f=fA
     22      H     2.81697000     0.24432000     0.03194000 adf.f=fA
     23      H     3.67331000     0.19281000    -2.19815000 adf.f=fA
     24      H     2.61900000    -1.11888000    -2.69834000 adf.f=fA
     25      H     0.64288000     0.36655000    -2.67829000 adf.f=fA
     26      H     1.92910000     0.90011000    -3.73428000 adf.f=fA
     27      H     0.93073000     2.78699000    -2.77392000 adf.f=fA
     28      H     2.58968000     2.70028000    -2.15956000 adf.f=fA
     29      H     2.96242000     2.75155000     2.07096000 adf.f=fA
     30      H     1.44747000     3.65335000     1.73761000 adf.f=fA
     31      H     1.39777000     1.87720000     1.99891000 adf.f=fA
     32      C    -2.99899000    -3.86216000     0.76714000 adf.f=fB
     33      O    -2.73390000    -2.61119000     0.11314000 adf.f=fB
     34      C    -2.54767000    -1.55637000     0.89300000 adf.f=fB
     35      O    -2.68487000    -1.54223000     2.10192000 adf.f=fB
     36      C    -2.16734000    -0.36103000     0.10534000 adf.f=fB
     37      N    -2.34657000     0.79740000     0.72030000 adf.f=fB
     38      C    -2.00239000     2.00645000     0.19228000 adf.f=fB
     39      C    -2.15753000     2.23489000    -1.20706000 adf.f=fB
     40      N    -2.27127000     2.40848000    -2.35252000 adf.f=fB
     41      C    -1.99559000     3.10986000     1.09378000 adf.f=fB
     42      N    -1.97680000     3.97742000     1.86869000 adf.f=fB
     43      H    -3.05732000    -4.61143000    -0.02994000 adf.f=fB
     44      H    -2.18306000    -4.10336000     1.46307000 adf.f=fB
     45      H    -3.95006000    -3.81133000     1.31596000 adf.f=fB
     46      H    -2.15966000    -0.40374000    -0.98170000 adf.f=fB
     47      H    -2.45699000     0.74687000     1.73999000 adf.f=fB

Total System Charge              0.00000


----------------
ADF Engine Input
----------------
 
   Basis
     Type TZ2P
     Core None
   End
   XC
     GGA BLYP
     Dispersion GRIMME3 BJDAMP
   End
   Symmetry NOSYM
   NumericalQuality Normal
   Unrestricted No
   SCF
     Iterations 200
     Converge 1.0e-6
   End
   fragments
     fA c1_fragA_ts.results/adf.rkf
     fB c2_fragB_ts.results/adf.rkf
   end
   etsnocv
     enocv 0.05
     ekmin 0.5
   end
   print etslowdin
   Save TAPE21
 

 Title: *** (NO TITLE) ***

 *** adf ***



 ===========================
 A T T A C H E D   F I L E S
 ===========================
  



 ===============================
 M O D E L   P A R A M E T E R S
 ===============================
  
 DENSITY FUNCTIONAL POTENTIAL (scf)
    LDA:                               Exchange only                           == Not Default ==
    Gradient Corrections:              Becke88 LYP                             == Not Default ==

 SPIN  (restricted / unrestr.)
    Molecule:                          Restricted                               
    Fragments:                         Restricted                               

 OTHER ASPECTS
    Relativistic Corrections:          scalar (ZORA,MAPA)                       

    Nuclear Charge Density Model:      Point Charge Nuclei                      
    Core Treatment:                    Frozen Orbital(s)                        

    Hyperfine or Zeeman Interaction:   ---                                      

 Settings for Grimme D3 dispersion correction

      damping                        BJ
      s6                          1.000
      s8                          2.700
      a1                          0.430
      a2                          4.236

 Other (technical) parameters

      alpha                      14.000
      version                         4
 


 Fragment File(s)
 ----------------
 fA:
         file : c1_fragA_ts.results/adf.rkf
         jobid: 1858987751
         title: *** adf ***
 fB:
         file : c2_fragB_ts.results/adf.rkf
         jobid: 768977126
         title: *** adf ***



 ===============
 G E O M E T R Y  ***  3D  Molecule  ***
 ===============
  

 ATOMS
 =====                            X Y Z                    CHARGE
                                (Angstrom)             Nucl     +Core       At.Mass
                       --------------------------    ----------------       -------
    1  C               0.2285    1.2920   -0.2333      6.00      6.00       12.0000
    2  C               0.2181    0.0537   -0.1049      6.00      6.00       12.0000
    3  C               1.1608   -1.1041   -0.0781      6.00      6.00       12.0000
    4  C               0.6778   -2.3182   -0.9200      6.00      6.00       12.0000
    5  F               1.7111   -3.0654   -1.3342      9.00      9.00       18.9984
    6  F              -0.1336   -3.1410   -0.2377      9.00      9.00       18.9984
    7  F               0.0123   -1.9116   -2.0107      9.00      9.00       18.9984
    8  C               1.3481   -1.5569    1.3944      6.00      6.00       12.0000
    9  F               2.1017   -2.6659    1.4662      9.00      9.00       18.9984
   10  F               1.9618   -0.6051    2.1114      9.00      9.00       18.9984
   11  F               0.1862   -1.8185    2.0072      9.00      9.00       18.9984
   12  C               2.5485   -0.6109   -0.5966      6.00      6.00       12.0000
   13  C               2.6551   -0.2123   -2.0745      6.00      6.00       12.0000
   14  C               1.6574    0.7885   -2.6717      6.00      6.00       12.0000
   15  C               1.6030    2.2136   -2.1201      6.00      6.00       12.0000
   16  C               1.1097    2.4291   -0.6506      6.00      6.00       12.0000
   17  C               0.4508    3.7646   -0.6271      6.00      6.00       12.0000
   18  N               0.0169    4.8391   -0.6556      7.00      7.00       14.0031
   19  O               2.2508    2.4958    0.1870      8.00      8.00       15.9949
   20  C               1.9858    2.7042    1.5726      6.00      6.00       12.0000
   21  H               3.2838   -1.4042   -0.3999      1.00      1.00        1.0078
   22  H               2.8170    0.2443    0.0319      1.00      1.00        1.0078
   23  H               3.6733    0.1928   -2.1982      1.00      1.00        1.0078
   24  H               2.6190   -1.1189   -2.6983      1.00      1.00        1.0078
   25  H               0.6429    0.3665   -2.6783      1.00      1.00        1.0078
   26  H               1.9291    0.9001   -3.7343      1.00      1.00        1.0078
   27  H               0.9307    2.7870   -2.7739      1.00      1.00        1.0078
   28  H               2.5897    2.7003   -2.1596      1.00      1.00        1.0078
   29  H               2.9624    2.7515    2.0710      1.00      1.00        1.0078
   30  H               1.4475    3.6533    1.7376      1.00      1.00        1.0078
   31  H               1.3978    1.8772    1.9989      1.00      1.00        1.0078
   32  C              -2.9990   -3.8622    0.7671      6.00      6.00       12.0000
   33  O              -2.7339   -2.6112    0.1131      8.00      8.00       15.9949
   34  C              -2.5477   -1.5564    0.8930      6.00      6.00       12.0000
   35  O              -2.6849   -1.5422    2.1019      8.00      8.00       15.9949
   36  C              -2.1673   -0.3610    0.1053      6.00      6.00       12.0000
   37  N              -2.3466    0.7974    0.7203      7.00      7.00       14.0031
   38  C              -2.0024    2.0065    0.1923      6.00      6.00       12.0000
   39  C              -2.1575    2.2349   -1.2071      6.00      6.00       12.0000
   40  N              -2.2713    2.4085   -2.3525      7.00      7.00       14.0031
   41  C              -1.9956    3.1099    1.0938      6.00      6.00       12.0000
   42  N              -1.9768    3.9774    1.8687      7.00      7.00       14.0031
   43  H              -3.0573   -4.6114   -0.0299      1.00      1.00        1.0078
   44  H              -2.1831   -4.1034    1.4631      1.00      1.00        1.0078
   45  H              -3.9501   -3.8113    1.3160      1.00      1.00        1.0078
   46  H              -2.1597   -0.4037   -0.9817      1.00      1.00        1.0078
   47  H              -2.4570    0.7469    1.7400      1.00      1.00        1.0078


 FRAGMENTS
 =========                                     Atoms in this Fragment     Cart. coord.s (Angstrom)
                                               -------------------------------------------------------
    1  fA                                                1  C            0.2285    1.2920   -0.2333
                                                         2  C            0.2181    0.0537   -0.1049
                                                         3  C            1.1608   -1.1041   -0.0781
                                                         4  C            0.6778   -2.3182   -0.9200
                                                         8  C            1.3481   -1.5569    1.3944
                                                        12  C            2.5485   -0.6109   -0.5966
                                                        13  C            2.6551   -0.2123   -2.0745
                                                        14  C            1.6574    0.7885   -2.6717
                                                        15  C            1.6030    2.2136   -2.1201
                                                        16  C            1.1097    2.4291   -0.6506
                                                        17  C            0.4508    3.7646   -0.6271
                                                        20  C            1.9858    2.7042    1.5726
                                                         5  F            1.7111   -3.0654   -1.3342
                                                         6  F           -0.1336   -3.1410   -0.2377
                                                         7  F            0.0123   -1.9116   -2.0107
                                                         9  F            2.1017   -2.6659    1.4662
                                                        10  F            1.9618   -0.6051    2.1114
                                                        11  F            0.1862   -1.8185    2.0072
                                                        18  N            0.0169    4.8391   -0.6556
                                                        19  O            2.2508    2.4958    0.1870
                                                        21  H            3.2838   -1.4042   -0.3999
                                                        22  H            2.8170    0.2443    0.0319
                                                        23  H            3.6733    0.1928   -2.1982
                                                        24  H            2.6190   -1.1189   -2.6983
                                                        25  H            0.6429    0.3665   -2.6783
                                                        26  H            1.9291    0.9001   -3.7343
                                                        27  H            0.9307    2.7870   -2.7739
                                                        28  H            2.5897    2.7003   -2.1596
                                                        29  H            2.9624    2.7515    2.0710
                                                        30  H            1.4475    3.6533    1.7376
                                                        31  H            1.3978    1.8772    1.9989
    2  fB                                               32  C           -2.9990   -3.8622    0.7671
                                                        34  C           -2.5477   -1.5564    0.8930
                                                        36  C           -2.1673   -0.3610    0.1053
                                                        38  C           -2.0024    2.0065    0.1923
                                                        39  C           -2.1575    2.2349   -1.2071
                                                        41  C           -1.9956    3.1099    1.0938
                                                        33  O           -2.7339   -2.6112    0.1131
                                                        35  O           -2.6849   -1.5422    2.1019
                                                        37  N           -2.3466    0.7974    0.7203
                                                        40  N           -2.2713    2.4085   -2.3525
                                                        42  N           -1.9768    3.9774    1.8687
                                                        43  H           -3.0573   -4.6114   -0.0299
                                                        44  H           -2.1831   -4.1034    1.4631
                                                        45  H           -3.9501   -3.8113    1.3160
                                                        46  H           -2.1597   -0.4037   -0.9817
                                                        47  H           -2.4570    0.7469    1.7400



 =====================================
 S Y M M E T R Y ,   E L E C T R O N S
 =====================================
  
 Symmetry: NOSYM

 Irreducible Representations, including subspecies
 -------------------------------------------------
 A


 Configuration of Valence Electrons
 ==================================
 ( determined in the SCF procedure )

 Total:   230

 Net Charge: 0 (Nuclei minus Electrons)

 Aufbau principle for MO occupations will be applied through SCF cycle no.     100
 Thereafter, the program will assign electrons to MOs that are spatially
 similar to the occupied MOs in a "reference" cycle ("KeepOrbitals").
 The reference cycle is always the PREVIOUS cycle: it will evolve with
 the SCF procedure.
 ***************************************************************************************************



                                      ****************************************
                                      *  B U I L D : (Fragments, Functions)  *
                                      ****************************************
  

 The individual fragments are copies of the corresponding 'Master' fragments defined on the fragment files.
 However, they may have been rotated (and translated) with respect to the Master. The local coordinate axes
 of each fragment (which define for instance the spatial orientation in the current molecule of a fragment
 P:x orbital) are not necessarily those of the molecule.
 The local frame (if different from the molecular one) is printed to enable an interpretation of the expan-
 sion of an MO in Fragment Orbitals.



                                              ************************
                                              *  Fragment Type : fA  *
                                              ************************
  

 Fragment no.    1   (in the list of all fragments)
 -----------------
 The local coordinate frame is identical to the molecular frame.

 Check Atomic Coordinates:

                  Master (on file)          After Computed Tranformation               As specified on Input
           ----------------------------     ----------------------------     ---------------------------------
     1)     0.22846   1.29197  -0.23331      0.22846   1.29197  -0.23331       1   0.22846   1.29197  -0.23331
     2)     0.21810   0.05367  -0.10491      0.21810   0.05367  -0.10491       2   0.21810   0.05367  -0.10491
     3)     1.16082  -1.10414  -0.07815      1.16082  -1.10414  -0.07815       3   1.16082  -1.10414  -0.07815
     4)     0.67776  -2.31823  -0.92005      0.67776  -2.31823  -0.92005       4   0.67776  -2.31823  -0.92005
     5)     1.34813  -1.55689   1.39437      1.34813  -1.55689   1.39437       8   1.34813  -1.55689   1.39437
     6)     2.54853  -0.61088  -0.59658      2.54853  -0.61088  -0.59658      12   2.54853  -0.61088  -0.59658
     7)     2.65507  -0.21232  -2.07454      2.65507  -0.21232  -2.07454      13   2.65507  -0.21232  -2.07454
     8)     1.65744   0.78853  -2.67175      1.65744   0.78853  -2.67175      14   1.65744   0.78853  -2.67175
     9)     1.60296   2.21356  -2.12014      1.60296   2.21356  -2.12014      15   1.60296   2.21356  -2.12014
    10)     1.10967   2.42907  -0.65062      1.10967   2.42907  -0.65062      16   1.10967   2.42907  -0.65062
    11)     0.45084   3.76461  -0.62711      0.45084   3.76461  -0.62711      17   0.45084   3.76461  -0.62711
    12)     1.98579   2.70418   1.57256      1.98579   2.70418   1.57256      20   1.98579   2.70418   1.57256
    13)     1.71111  -3.06541  -1.33424      1.71111  -3.06541  -1.33424       5   1.71111  -3.06541  -1.33424
    14)    -0.13357  -3.14099  -0.23767     -0.13357  -3.14099  -0.23767       6  -0.13357  -3.14099  -0.23767
    15)     0.01228  -1.91155  -2.01065      0.01228  -1.91155  -2.01065       7   0.01228  -1.91155  -2.01065
    16)     2.10171  -2.66591   1.46622      2.10171  -2.66591   1.46622       9   2.10171  -2.66591   1.46622
    17)     1.96177  -0.60506   2.11136      1.96177  -0.60506   2.11136      10   1.96177  -0.60506   2.11136
    18)     0.18620  -1.81848   2.00718      0.18620  -1.81848   2.00718      11   0.18620  -1.81848   2.00718
    19)     0.01695   4.83910  -0.65559      0.01695   4.83910  -0.65559      18   0.01695   4.83910  -0.65559
    20)     2.25076   2.49579   0.18697      2.25076   2.49579   0.18697      19   2.25076   2.49579   0.18697
    21)     3.28377  -1.40425  -0.39990      3.28377  -1.40425  -0.39990      21   3.28377  -1.40425  -0.39990
    22)     2.81697   0.24432   0.03194      2.81697   0.24432   0.03194      22   2.81697   0.24432   0.03194
    23)     3.67331   0.19281  -2.19815      3.67331   0.19281  -2.19815      23   3.67331   0.19281  -2.19815
    24)     2.61900  -1.11888  -2.69834      2.61900  -1.11888  -2.69834      24   2.61900  -1.11888  -2.69834
    25)     0.64288   0.36655  -2.67829      0.64288   0.36655  -2.67829      25   0.64288   0.36655  -2.67829
    26)     1.92910   0.90011  -3.73428      1.92910   0.90011  -3.73428      26   1.92910   0.90011  -3.73428
    27)     0.93073   2.78699  -2.77392      0.93073   2.78699  -2.77392      27   0.93073   2.78699  -2.77392
    28)     2.58968   2.70028  -2.15956      2.58968   2.70028  -2.15956      28   2.58968   2.70028  -2.15956
    29)     2.96242   2.75155   2.07096      2.96242   2.75155   2.07096      29   2.96242   2.75155   2.07096
    30)     1.44747   3.65335   1.73761      1.44747   3.65335   1.73761      30   1.44747   3.65335   1.73761
    31)     1.39777   1.87720   1.99891      1.39777   1.87720   1.99891      31   1.39777   1.87720   1.99891



                                              ************************
                                              *  Fragment Type : fB  *
                                              ************************
  

 Fragment no.    2   (in the list of all fragments)
 -----------------
 The local coordinate frame is identical to the molecular frame.

 Check Atomic Coordinates:

                  Master (on file)          After Computed Tranformation               As specified on Input
           ----------------------------     ----------------------------     ---------------------------------
     1)    -2.99899  -3.86216   0.76714     -2.99899  -3.86216   0.76714      32  -2.99899  -3.86216   0.76714
     2)    -2.54767  -1.55637   0.89300     -2.54767  -1.55637   0.89300      34  -2.54767  -1.55637   0.89300
     3)    -2.16734  -0.36103   0.10534     -2.16734  -0.36103   0.10534      36  -2.16734  -0.36103   0.10534
     4)    -2.00239   2.00645   0.19228     -2.00239   2.00645   0.19228      38  -2.00239   2.00645   0.19228
     5)    -2.15753   2.23489  -1.20706     -2.15753   2.23489  -1.20706      39  -2.15753   2.23489  -1.20706
     6)    -1.99559   3.10986   1.09378     -1.99559   3.10986   1.09378      41  -1.99559   3.10986   1.09378
     7)    -2.73390  -2.61119   0.11314     -2.73390  -2.61119   0.11314      33  -2.73390  -2.61119   0.11314
     8)    -2.68487  -1.54223   2.10192     -2.68487  -1.54223   2.10192      35  -2.68487  -1.54223   2.10192
     9)    -2.34657   0.79740   0.72030     -2.34657   0.79740   0.72030      37  -2.34657   0.79740   0.72030
    10)    -2.27127   2.40848  -2.35252     -2.27127   2.40848  -2.35252      40  -2.27127   2.40848  -2.35252
    11)    -1.97680   3.97742   1.86869     -1.97680   3.97742   1.86869      42  -1.97680   3.97742   1.86869
    12)    -3.05732  -4.61143  -0.02994     -3.05732  -4.61143  -0.02994      43  -3.05732  -4.61143  -0.02994
    13)    -2.18306  -4.10336   1.46307     -2.18306  -4.10336   1.46307      44  -2.18306  -4.10336   1.46307
    14)    -3.95006  -3.81133   1.31596     -3.95006  -3.81133   1.31596      45  -3.95006  -3.81133   1.31596
    15)    -2.15966  -0.40374  -0.98170     -2.15966  -0.40374  -0.98170      46  -2.15966  -0.40374  -0.98170
    16)    -2.45699   0.74687   1.73999     -2.45699   0.74687   1.73999      47  -2.45699   0.74687   1.73999



 =======
 S F O s  ***  (Symmetrized Fragment Orbitals)  ***
 =======
  
 SFOs are linear combinations of (valence) Fragment Orbitals (FOs), such that the SFOs transform as the
 irreducible representations of the (molecular) symmetry group. Each SFO is therefore characterized by
 an irrep of the molecule and by a few (or only one) generating FOs.
 The SFOs constitute a symmetry-adapted basis for the Fock matrix. The MO eigenvector coefficients in
 this basis provide a direct interpretation of the MOs in terms of Frontier Orbital Theory.

 The SFOs are combined with auxiliary Core Functions (CFs) to ensure orthogonalization on the (frozen)
 Core Orbitals (COs). The Core-orthogonalized SFOs (CSFOs) constitute the true Fock basis.

 The FOs, and hence also the (C)SFOs are combinations of the elementary basis functions (BAS). The basis
 functions that participate in the description of the SFOs depend on the irrep. The indices of the
 involved functions are printed below for each irrep.
 (The complete list of primitive basis functions is printed in another section)

 Total nr. of (C)SFOs (summation over all irreps) :   982

 NOTE: a (C)SFO that is defined as a combination of more than one FO is usually NOT normalized.



                                       === A ===
 Nr. of SFOs :  982
 Cartesian basis functions that participate in this irrep (total number =  1122) :
      1     2     3     4     5     6     9    12     7    10
     13     8    11    14    15    16    17    18    19    20
     21    22    23    24    25    26    27    28    29    30
     31    32    33    34    35    36    39    42    37    40
     43    38    41    44    45    46    47    48    49    50
     51    52    53    54    55    56    57    58    59    60
     61    62    63    64    65    66    69    72    67    70
     73    68    71    74    75    76    77    78    79    80
     81    82    83    84    85    86    87    88    89    90
     91    92    93    94    95    96    99   102    97   100
    103    98   101   104   105   106   107   108   109   110
    111   112   113   114   115   116   117   118   119   120
    121   122   123   124   125   126   129   132   127   130
    133   128   131   134   135   136   137   138   139   140
    141   142   143   144   145   146   147   148   149   150
    151   152   153   154   155   156   159   162   157   160
    163   158   161   164   165   166   167   168   169   170
    171   172   173   174   175   176   177   178   179   180
    181   182   183   184   185   186   189   192   187   190
    193   188   191   194   195   196   197   198   199   200
    201   202   203   204   205   206   207   208   209   210
    211   212   213   214   215   216   219   222   217   220
    223   218   221   224   225   226   227   228   229   230
    231   232   233   234   235   236   237   238   239   240
    241   242   243   244   245   246   249   252   247   250
    253   248   251   254   255   256   257   258   259   260
    261   262   263   264   265   266   267   268   269   270
    271   272   273   274   275   276   279   282   277   280
    283   278   281   284   285   286   287   288   289   290
    291   292   293   294   295   296   297   298   299   300
    301   302   303   304   305   306   309   312   307   310
    313   308   311   314   315   316   317   318   319   320
    321   322   323   324   325   326   327   328   329   330
    331   332   333   334   335   336   339   342   337   340
    343   338   341   344   345   346   347   348   349   350
    351   352   353   354   355   356   357   358   359   360
    361   362   363   364   365   366   369   372   367   370
    373   368   371   374   375   376   377   378   379   380
    381   382   383   384   385   386   387   388   389   390
    391   392   393   394   395   396   399   402   397   400
    403   398   401   404   405   406   407   408   409   410
    411   412   413   414   415   416   417   418   419   420
    421   422   423   424   425   426   429   432   427   430
    433   428   431   434   435   436   437   438   439   440
    441   442   443   444   445   446   447   448   449   450
    451   452   453   454   455   456   459   462   457   460
    463   458   461   464   465   466   467   468   469   470
    471   472   473   474   475   476   477   478   479   480
    481   482   483   484   485   486   489   492   487   490
    493   488   491   494   495   496   497   498   499   500
    501   502   503   504   505   506   507   508   509   510
    511   512   513   514   515   516   519   522   517   520
    523   518   521   524   525   526   527   528   529   530
    531   532   533   534   535   536   537   538   539   540
    541   542   543   544   545   546   549   552   547   550
    553   548   551   554   555   556   557   558   559   560
    561   562   563   564   565   566   567   568   569   570
    571   572   573   574   575   576   579   582   577   580
    583   578   581   584   585   586   587   588   589   590
    591   592   593   594   595   596   597   598   599   600
    601   602   603   604   605   606   607   608   609   610
    611   612   613   614   615   616   617   618   619   620
    621   622   623   624   625   626   627   628   629   630
    631   632   633   634   635   636   637   638   639   640
    641   642   643   644   645   646   647   648   649   650
    651   652   653   654   655   656   657   658   659   660
    661   662   663   664   665   666   667   668   669   670
    671   672   673   674   675   676   677   678   679   680
    681   682   683   684   685   686   687   688   689   690
    691   692   693   694   695   696   697   698   699   700
    701   702   703   704   705   706   707   708   709   710
    711   712   713   714   715   716   717   718   719   720
    721   722   723   724   725   726   727   728   729   730
    731   732   733   734   735   736   737   738   741   744
    739   742   745   740   743   746   747   748   749   750
    751   752   753   754   755   756   757   758   759   760
    761   762   763   764   765   766   767   768   771   774
    769   772   775   770   773   776   777   778   779   780
    781   782   783   784   785   786   787   788   789   790
    791   792   793   794   795   796   797   798   801   804
    799   802   805   800   803   806   807   808   809   810
    811   812   813   814   815   816   817   818   819   820
    821   822   823   824   825   826   827   828   831   834
    829   832   835   830   833   836   837   838   839   840
    841   842   843   844   845   846   847   848   849   850
    851   852   853   854   855   856   857   858   861   864
    859   862   865   860   863   866   867   868   869   870
    871   872   873   874   875   876   877   878   879   880
    881   882   883   884   885   886   887   888   891   894
    889   892   895   890   893   896   897   898   899   900
    901   902   903   904   905   906   907   908   909   910
    911   912   913   914   915   916   917   918   921   924
    919   922   925   920   923   926   927   928   929   930
    931   932   933   934   935   936   937   938   939   940
    941   942   943   944   945   946   947   948   951   954
    949   952   955   950   953   956   957   958   959   960
    961   962   963   964   965   966   967   968   969   970
    971   972   973   974   975   976   977   978   981   984
    979   982   985   980   983   986   987   988   989   990
    991   992   993   994   995   996   997   998   999  1000
   1001  1002  1003  1004  1005  1006  1007  1008  1011  1014
   1009  1012  1015  1010  1013  1016  1017  1018  1019  1020
   1021  1022  1023  1024  1025  1026  1027  1028  1029  1030
   1031  1032  1033  1034  1035  1036  1037  1038  1041  1044
   1039  1042  1045  1040  1043  1046  1047  1048  1049  1050
   1051  1052  1053  1054  1055  1056  1057  1058  1059  1060
   1061  1062  1063  1064  1065  1066  1067  1068  1069  1070
   1071  1072  1073  1074  1075  1076  1077  1078  1079  1080
   1081  1082  1083  1084  1085  1086  1087  1088  1089  1090
   1091  1092  1093  1094  1095  1096  1097  1098  1099  1100
   1101  1102  1103  1104  1105  1106  1107  1108  1109  1110
   1111  1112  1113  1114  1115  1116  1117  1118  1119  1120
   1121  1122

    SFO  (index         Fragment          Generating    Expansion in Fragment Orbitals
  indx  incl.CFs)   Occup   Orb.Energy   FragmentType  Coeff.   Orbital     on Fragment
 --------------------------------------------------------------------------------------
     1       1      2.000     -24.367 au  fA            1.00      1 A               1
                        (    -663.060 eV)
     2       2      2.000     -24.366 au  fA            1.00      2 A               1
                        (    -663.033 eV)
     3       3      2.000     -24.365 au  fA            1.00      3 A               1
                        (    -663.005 eV)
     4       4      2.000     -24.365 au  fA            1.00      4 A               1
                        (    -663.002 eV)
     5       5      2.000     -24.361 au  fA            1.00      5 A               1
                        (    -662.891 eV)
     6       6      2.000     -24.361 au  fA            1.00      6 A               1
                        (    -662.889 eV)
     7       7      2.000     -18.849 au  fA            1.00      7 A               1
                        (    -512.911 eV)
     8       8      2.000     -14.036 au  fA            1.00      8 A               1
                        (    -381.937 eV)
     9       9      2.000     -10.196 au  fA            1.00      9 A               1
                        (    -277.459 eV)
    10      10      2.000     -10.196 au  fA            1.00     10 A               1
                        (    -277.447 eV)
    11      11      2.000     -10.073 au  fA            1.00     11 A               1
                        (    -274.099 eV)
    12      12      2.000     -10.032 au  fA            1.00     12 A               1
                        (    -272.977 eV)
    13      13      2.000      -9.987 au  fA            1.00     13 A               1
                        (    -271.754 eV)
    14      14      2.000      -9.972 au  fA            1.00     14 A               1
                        (    -271.344 eV)
    15      15      2.000      -9.970 au  fA            1.00     15 A               1
                        (    -271.289 eV)
    16      16      2.000      -9.967 au  fA            1.00     16 A               1
                        (    -271.213 eV)
    17      17      2.000      -9.962 au  fA            1.00     17 A               1
                        (    -271.069 eV)
    18      18      2.000      -9.961 au  fA            1.00     18 A               1
                        (    -271.055 eV)
    19      19      2.000      -9.948 au  fA            1.00     19 A               1
                        (    -270.704 eV)
    20      20      2.000      -9.945 au  fA            1.00     20 A               1
                        (    -270.626 eV)
    21      21      2.000      -1.242 au  fA            1.00     21 A               1
                        (     -33.800 eV)
    22      22      2.000      -1.236 au  fA            1.00     22 A               1
                        (     -33.644 eV)
    23      23      2.000      -1.155 au  fA            1.00     23 A               1
                        (     -31.431 eV)
    24      24      2.000      -1.153 au  fA            1.00     24 A               1
                        (     -31.368 eV)
    25      25      2.000      -1.151 au  fA            1.00     25 A               1
                        (     -31.325 eV)
    26      26      2.000      -1.148 au  fA            1.00     26 A               1
                        (     -31.226 eV)
    27      27      2.000      -1.001 au  fA            1.00     27 A               1
                        (     -27.242 eV)
    28      28      2.000      -0.840 au  fA            1.00     28 A               1
                        (     -22.864 eV)
    29      29      2.000      -0.819 au  fA            1.00     29 A               1
                        (     -22.279 eV)
    30      30      2.000      -0.775 au  fA            1.00     30 A               1
                        (     -21.076 eV)
    31      31      2.000      -0.735 au  fA            1.00     31 A               1
                        (     -20.004 eV)
    32      32      2.000      -0.700 au  fA            1.00     32 A               1
                        (     -19.049 eV)
    33      33      2.000      -0.675 au  fA            1.00     33 A               1
                        (     -18.373 eV)
    34      34      2.000      -0.668 au  fA            1.00     34 A               1
                        (     -18.167 eV)
    35      35      2.000      -0.636 au  fA            1.00     35 A               1
                        (     -17.314 eV)
    36      36      2.000      -0.632 au  fA            1.00     36 A               1
                        (     -17.211 eV)
    37      37      2.000      -0.600 au  fA            1.00     37 A               1
                        (     -16.326 eV)
    38      38      2.000      -0.576 au  fA            1.00     38 A               1
                        (     -15.663 eV)
    39      39      2.000      -0.569 au  fA            1.00     39 A               1
                        (     -15.490 eV)
    40      40      2.000      -0.564 au  fA            1.00     40 A               1
                        (     -15.342 eV)
    41      41      2.000      -0.557 au  fA            1.00     41 A               1
                        (     -15.155 eV)
    42      42      2.000      -0.544 au  fA            1.00     42 A               1
                        (     -14.811 eV)
    43      43      2.000      -0.541 au  fA            1.00     43 A               1
                        (     -14.719 eV)
    44      44      2.000      -0.531 au  fA            1.00     44 A               1
                        (     -14.437 eV)
    45      45      2.000      -0.510 au  fA            1.00     45 A               1
                        (     -13.883 eV)
    46      46      2.000      -0.493 au  fA            1.00     46 A               1
                        (     -13.403 eV)
    47      47      2.000      -0.459 au  fA            1.00     47 A               1
                        (     -12.498 eV)
    48      48      2.000      -0.450 au  fA            1.00     48 A               1
                        (     -12.238 eV)
    49      49      2.000      -0.442 au  fA            1.00     49 A               1
                        (     -12.023 eV)
    50      50      2.000      -0.439 au  fA            1.00     50 A               1
                        (     -11.938 eV)
    51      51      2.000      -0.434 au  fA            1.00     51 A               1
                        (     -11.807 eV)
    52      52      2.000      -0.429 au  fA            1.00     52 A               1
                        (     -11.671 eV)
    53      53      2.000      -0.427 au  fA            1.00     53 A               1
                        (     -11.609 eV)
    54      54      2.000      -0.424 au  fA            1.00     54 A               1
                        (     -11.531 eV)
    55      55      2.000      -0.415 au  fA            1.00     55 A               1
                        (     -11.300 eV)
    56      56      2.000      -0.404 au  fA            1.00     56 A               1
                        (     -11.006 eV)
    57      57      2.000      -0.395 au  fA            1.00     57 A               1
                        (     -10.752 eV)
    58      58      2.000      -0.393 au  fA            1.00     58 A               1
                        (     -10.685 eV)
    59      59      2.000      -0.390 au  fA            1.00     59 A               1
                        (     -10.609 eV)
    60      60      2.000      -0.388 au  fA            1.00     60 A               1
                        (     -10.549 eV)
    61      61      2.000      -0.380 au  fA            1.00     61 A               1
                        (     -10.335 eV)
    62      62      2.000      -0.379 au  fA            1.00     62 A               1
                        (     -10.315 eV)
    63      63      2.000      -0.376 au  fA            1.00     63 A               1
                        (     -10.225 eV)
    64      64      2.000      -0.373 au  fA            1.00     64 A               1
                        (     -10.147 eV)
    65      65      2.000      -0.362 au  fA            1.00     65 A               1
                        (      -9.852 eV)
    66      66      2.000      -0.356 au  fA            1.00     66 A               1
                        (      -9.680 eV)
    67      67      2.000      -0.341 au  fA            1.00     67 A               1
                        (      -9.287 eV)
    68      68      2.000      -0.332 au  fA            1.00     68 A               1
                        (      -9.025 eV)
    69      69      2.000      -0.326 au  fA            1.00     69 A               1
                        (      -8.882 eV)
    70      70      2.000      -0.324 au  fA            1.00     70 A               1
                        (      -8.809 eV)
    71      71      2.000      -0.318 au  fA            1.00     71 A               1
                        (      -8.643 eV)
    72      72      2.000      -0.311 au  fA            1.00     72 A               1
                        (      -8.460 eV)
    73      73      2.000      -0.303 au  fA            1.00     73 A               1
                        (      -8.253 eV)
    74      74      2.000      -0.280 au  fA            1.00     74 A               1
                        (      -7.626 eV)
    75      75      2.000      -0.269 au  fA            1.00     75 A               1
                        (      -7.332 eV)
    76      76      2.000      -0.265 au  fA            1.00     76 A               1
                        (      -7.210 eV)
    77      77       --        -0.122 au  fA            1.00     77 A               1
                        (      -3.308 eV)
    78      78       --        -0.066 au  fA            1.00     78 A               1
                        (      -1.789 eV)
    79      79       --        -0.029 au  fA            1.00     79 A               1
                        (      -0.787 eV)
    80      80       --        -0.024 au  fA            1.00     80 A               1
                        (      -0.649 eV)
    81      81       --        -0.020 au  fA            1.00     81 A               1
                        (      -0.542 eV)
    82      82       --        -0.007 au  fA            1.00     82 A               1
                        (      -0.186 eV)
    83      83       --        -0.001 au  fA            1.00     83 A               1
                        (      -0.019 eV)
    84      84       --         0.004 au  fA            1.00     84 A               1
                        (       0.121 eV)
    85      85       --         0.019 au  fA            1.00     85 A               1
                        (       0.524 eV)
    86      86       --         0.024 au  fA            1.00     86 A               1
                        (       0.642 eV)
    87      87       --         0.027 au  fA            1.00     87 A               1
                        (       0.743 eV)
    88      88       --         0.032 au  fA            1.00     88 A               1
                        (       0.872 eV)
    89      89       --         0.039 au  fA            1.00     89 A               1
                        (       1.061 eV)
    90      90       --         0.046 au  fA            1.00     90 A               1
                        (       1.253 eV)
    91      91       --         0.055 au  fA            1.00     91 A               1
                        (       1.504 eV)
    92      92       --         0.059 au  fA            1.00     92 A               1
                        (       1.603 eV)
    93      93       --         0.065 au  fA            1.00     93 A               1
                        (       1.757 eV)
    94      94       --         0.066 au  fA            1.00     94 A               1
                        (       1.796 eV)
    95      95       --         0.070 au  fA            1.00     95 A               1
                        (       1.899 eV)
    96      96       --         0.080 au  fA            1.00     96 A               1
                        (       2.189 eV)
    97      97       --         0.085 au  fA            1.00     97 A               1
                        (       2.317 eV)
    98      98       --         0.092 au  fA            1.00     98 A               1
                        (       2.498 eV)
    99      99       --         0.097 au  fA            1.00     99 A               1
                        (       2.639 eV)
   100     100       --         0.102 au  fA            1.00    100 A               1
                        (       2.765 eV)
   101     101       --         0.112 au  fA            1.00    101 A               1
                        (       3.041 eV)
   102     102       --         0.118 au  fA            1.00    102 A               1
                        (       3.199 eV)
   103     103       --         0.122 au  fA            1.00    103 A               1
                        (       3.328 eV)
   104     104       --         0.132 au  fA            1.00    104 A               1
                        (       3.593 eV)
   105     105       --         0.134 au  fA            1.00    105 A               1
                        (       3.645 eV)
   106     106       --         0.141 au  fA            1.00    106 A               1
                        (       3.849 eV)
   107     107       --         0.143 au  fA            1.00    107 A               1
                        (       3.887 eV)
   108     108       --         0.149 au  fA            1.00    108 A               1
                        (       4.049 eV)
   109     109       --         0.151 au  fA            1.00    109 A               1
                        (       4.095 eV)
   110     110       --         0.154 au  fA            1.00    110 A               1
                        (       4.187 eV)
   111     111       --         0.161 au  fA            1.00    111 A               1
                        (       4.390 eV)
   112     112       --         0.167 au  fA            1.00    112 A               1
                        (       4.545 eV)
   113     113       --         0.174 au  fA            1.00    113 A               1
                        (       4.746 eV)
   114     114       --         0.181 au  fA            1.00    114 A               1
                        (       4.916 eV)
   115     115       --         0.189 au  fA            1.00    115 A               1
                        (       5.131 eV)
   116     116       --         0.193 au  fA            1.00    116 A               1
                        (       5.262 eV)
   117     117       --         0.204 au  fA            1.00    117 A               1
                        (       5.560 eV)
   118     118       --         0.208 au  fA            1.00    118 A               1
                        (       5.673 eV)
   119     119       --         0.212 au  fA            1.00    119 A               1
                        (       5.774 eV)
   120     120       --         0.220 au  fA            1.00    120 A               1
                        (       5.983 eV)
   121     121       --         0.227 au  fA            1.00    121 A               1
                        (       6.165 eV)
   122     122       --         0.237 au  fA            1.00    122 A               1
                        (       6.436 eV)
   123     123       --         0.247 au  fA            1.00    123 A               1
                        (       6.729 eV)
   124     124       --         0.251 au  fA            1.00    124 A               1
                        (       6.818 eV)
   125     125       --         0.257 au  fA            1.00    125 A               1
                        (       7.002 eV)
   126     126       --         0.273 au  fA            1.00    126 A               1
                        (       7.417 eV)
   127     127       --         0.278 au  fA            1.00    127 A               1
                        (       7.573 eV)
   128     128       --         0.289 au  fA            1.00    128 A               1
                        (       7.861 eV)
   129     129       --         0.298 au  fA            1.00    129 A               1
                        (       8.106 eV)
   130     130       --         0.303 au  fA            1.00    130 A               1
                        (       8.243 eV)
   131     131       --         0.313 au  fA            1.00    131 A               1
                        (       8.528 eV)
   132     132       --         0.316 au  fA            1.00    132 A               1
                        (       8.604 eV)
   133     133       --         0.323 au  fA            1.00    133 A               1
                        (       8.793 eV)
   134     134       --         0.334 au  fA            1.00    134 A               1
                        (       9.097 eV)
   135     135       --         0.345 au  fA            1.00    135 A               1
                        (       9.382 eV)
   136     136       --         0.352 au  fA            1.00    136 A               1
                        (       9.590 eV)
   137     137       --         0.357 au  fA            1.00    137 A               1
                        (       9.714 eV)
   138     138       --         0.358 au  fA            1.00    138 A               1
                        (       9.748 eV)
   139     139       --         0.372 au  fA            1.00    139 A               1
                        (      10.114 eV)
   140     140       --         0.374 au  fA            1.00    140 A               1
                        (      10.190 eV)
   141     141       --         0.381 au  fA            1.00    141 A               1
                        (      10.370 eV)
   142     142       --         0.389 au  fA            1.00    142 A               1
                        (      10.589 eV)
   143     143       --         0.393 au  fA            1.00    143 A               1
                        (      10.706 eV)
   144     144       --         0.395 au  fA            1.00    144 A               1
                        (      10.757 eV)
   145     145       --         0.410 au  fA            1.00    145 A               1
                        (      11.144 eV)
   146     146       --         0.415 au  fA            1.00    146 A               1
                        (      11.297 eV)
   147     147       --         0.421 au  fA            1.00    147 A               1
                        (      11.452 eV)
   148     148       --         0.439 au  fA            1.00    148 A               1
                        (      11.943 eV)
   149     149       --         0.444 au  fA            1.00    149 A               1
                        (      12.072 eV)
   150     150       --         0.453 au  fA            1.00    150 A               1
                        (      12.337 eV)
   151     151       --         0.460 au  fA            1.00    151 A               1
                        (      12.515 eV)
   152     152       --         0.465 au  fA            1.00    152 A               1
                        (      12.653 eV)
   153     153       --         0.481 au  fA            1.00    153 A               1
                        (      13.090 eV)
   154     154       --         0.494 au  fA            1.00    154 A               1
                        (      13.448 eV)
   155     155       --         0.511 au  fA            1.00    155 A               1
                        (      13.901 eV)
   156     156       --         0.526 au  fA            1.00    156 A               1
                        (      14.326 eV)
   157     157       --         0.532 au  fA            1.00    157 A               1
                        (      14.468 eV)
   158     158       --         0.533 au  fA            1.00    158 A               1
                        (      14.514 eV)
   159     159       --         0.543 au  fA            1.00    159 A               1
                        (      14.786 eV)
   160     160       --         0.549 au  fA            1.00    160 A               1
                        (      14.945 eV)
   161     161       --         0.572 au  fA            1.00    161 A               1
                        (      15.552 eV)
   162     162       --         0.581 au  fA            1.00    162 A               1
                        (      15.815 eV)
   163     163       --         0.594 au  fA            1.00    163 A               1
                        (      16.175 eV)
   164     164       --         0.610 au  fA            1.00    164 A               1
                        (      16.598 eV)
   165     165       --         0.621 au  fA            1.00    165 A               1
                        (      16.905 eV)
   166     166       --         0.636 au  fA            1.00    166 A               1
                        (      17.314 eV)
   167     167       --         0.648 au  fA            1.00    167 A               1
                        (      17.628 eV)
   168     168       --         0.672 au  fA            1.00    168 A               1
                        (      18.285 eV)
   169     169       --         0.684 au  fA            1.00    169 A               1
                        (      18.604 eV)
   170     170       --         0.687 au  fA            1.00    170 A               1
                        (      18.690 eV)
   171     171       --         0.690 au  fA            1.00    171 A               1
                        (      18.779 eV)
   172     172       --         0.702 au  fA            1.00    172 A               1
                        (      19.093 eV)
   173     173       --         0.709 au  fA            1.00    173 A               1
                        (      19.283 eV)
   174     174       --         0.715 au  fA            1.00    174 A               1
                        (      19.466 eV)
   175     175       --         0.717 au  fA            1.00    175 A               1
                        (      19.499 eV)
   176     176       --         0.726 au  fA            1.00    176 A               1
                        (      19.760 eV)
   177     177       --         0.739 au  fA            1.00    177 A               1
                        (      20.104 eV)
   178     178       --         0.743 au  fA            1.00    178 A               1
                        (      20.214 eV)
   179     179       --         0.758 au  fA            1.00    179 A               1
                        (      20.640 eV)
   180     180       --         0.764 au  fA            1.00    180 A               1
                        (      20.802 eV)
   181     181       --         0.775 au  fA            1.00    181 A               1
                        (      21.098 eV)
   182     182       --         0.779 au  fA            1.00    182 A               1
                        (      21.210 eV)
   183     183       --         0.789 au  fA            1.00    183 A               1
                        (      21.477 eV)
   184     184       --         0.797 au  fA            1.00    184 A               1
                        (      21.697 eV)
   185     185       --         0.800 au  fA            1.00    185 A               1
                        (      21.763 eV)
   186     186       --         0.813 au  fA            1.00    186 A               1
                        (      22.131 eV)
   187     187       --         0.827 au  fA            1.00    187 A               1
                        (      22.497 eV)
   188     188       --         0.841 au  fA            1.00    188 A               1
                        (      22.898 eV)
   189     189       --         0.856 au  fA            1.00    189 A               1
                        (      23.304 eV)
   190     190       --         0.867 au  fA            1.00    190 A               1
                        (      23.606 eV)
   191     191       --         0.877 au  fA            1.00    191 A               1
                        (      23.861 eV)
   192     192       --         0.881 au  fA            1.00    192 A               1
                        (      23.961 eV)
   193     193       --         0.888 au  fA            1.00    193 A               1
                        (      24.152 eV)
   194     194       --         0.895 au  fA            1.00    194 A               1
                        (      24.349 eV)
   195     195       --         0.903 au  fA            1.00    195 A               1
                        (      24.561 eV)
   196     196       --         0.917 au  fA            1.00    196 A               1
                        (      24.952 eV)
   197     197       --         0.929 au  fA            1.00    197 A               1
                        (      25.291 eV)
   198     198       --         0.939 au  fA            1.00    198 A               1
                        (      25.547 eV)
   199     199       --         0.949 au  fA            1.00    199 A               1
                        (      25.826 eV)
   200     200       --         0.954 au  fA            1.00    200 A               1
                        (      25.952 eV)
   201     201       --         0.957 au  fA            1.00    201 A               1
                        (      26.051 eV)
   202     202       --         0.983 au  fA            1.00    202 A               1
                        (      26.738 eV)
   203     203       --         0.995 au  fA            1.00    203 A               1
                        (      27.072 eV)
   204     204       --         0.998 au  fA            1.00    204 A               1
                        (      27.157 eV)
   205     205       --         1.006 au  fA            1.00    205 A               1
                        (      27.384 eV)
   206     206       --         1.013 au  fA            1.00    206 A               1
                        (      27.578 eV)
   207     207       --         1.024 au  fA            1.00    207 A               1
                        (      27.855 eV)
   208     208       --         1.037 au  fA            1.00    208 A               1
                        (      28.223 eV)
   209     209       --         1.054 au  fA            1.00    209 A               1
                        (      28.693 eV)
   210     210       --         1.056 au  fA            1.00    210 A               1
                        (      28.733 eV)
   211     211       --         1.076 au  fA            1.00    211 A               1
                        (      29.287 eV)
   212     212       --         1.082 au  fA            1.00    212 A               1
                        (      29.436 eV)
   213     213       --         1.090 au  fA            1.00    213 A               1
                        (      29.668 eV)
   214     214       --         1.103 au  fA            1.00    214 A               1
                        (      30.018 eV)
   215     215       --         1.113 au  fA            1.00    215 A               1
                        (      30.278 eV)
   216     216       --         1.123 au  fA            1.00    216 A               1
                        (      30.550 eV)
   217     217       --         1.128 au  fA            1.00    217 A               1
                        (      30.688 eV)
   218     218       --         1.154 au  fA            1.00    218 A               1
                        (      31.401 eV)
   219     219       --         1.162 au  fA            1.00    219 A               1
                        (      31.630 eV)
   220     220       --         1.169 au  fA            1.00    220 A               1
                        (      31.814 eV)
   221     221       --         1.180 au  fA            1.00    221 A               1
                        (      32.121 eV)
   222     222       --         1.183 au  fA            1.00    222 A               1
                        (      32.180 eV)
   223     223       --         1.193 au  fA            1.00    223 A               1
                        (      32.451 eV)
   224     224       --         1.204 au  fA            1.00    224 A               1
                        (      32.765 eV)
   225     225       --         1.211 au  fA            1.00    225 A               1
                        (      32.947 eV)
   226     226       --         1.222 au  fA            1.00    226 A               1
                        (      33.260 eV)
   227     227       --         1.229 au  fA            1.00    227 A               1
                        (      33.439 eV)
   228     228       --         1.238 au  fA            1.00    228 A               1
                        (      33.690 eV)
   229     229       --         1.242 au  fA            1.00    229 A               1
                        (      33.785 eV)
   230     230       --         1.258 au  fA            1.00    230 A               1
                        (      34.222 eV)
   231     231       --         1.267 au  fA            1.00    231 A               1
                        (      34.479 eV)
   232     232       --         1.276 au  fA            1.00    232 A               1
                        (      34.715 eV)
   233     233       --         1.291 au  fA            1.00    233 A               1
                        (      35.121 eV)
   234     234       --         1.295 au  fA            1.00    234 A               1
                        (      35.251 eV)
   235     235       --         1.311 au  fA            1.00    235 A               1
                        (      35.661 eV)
   236     236       --         1.315 au  fA            1.00    236 A               1
                        (      35.791 eV)
   237     237       --         1.319 au  fA            1.00    237 A               1
                        (      35.889 eV)
   238     238       --         1.332 au  fA            1.00    238 A               1
                        (      36.237 eV)
   239     239       --         1.343 au  fA            1.00    239 A               1
                        (      36.533 eV)
   240     240       --         1.348 au  fA            1.00    240 A               1
                        (      36.680 eV)
   241     241       --         1.349 au  fA            1.00    241 A               1
                        (      36.715 eV)
   242     242       --         1.361 au  fA            1.00    242 A               1
                        (      37.034 eV)
   243     243       --         1.386 au  fA            1.00    243 A               1
                        (      37.709 eV)
   244     244       --         1.391 au  fA            1.00    244 A               1
                        (      37.844 eV)
   245     245       --         1.403 au  fA            1.00    245 A               1
                        (      38.186 eV)
   246     246       --         1.409 au  fA            1.00    246 A               1
                        (      38.332 eV)
   247     247       --         1.431 au  fA            1.00    247 A               1
                        (      38.936 eV)
   248     248       --         1.441 au  fA            1.00    248 A               1
                        (      39.220 eV)
   249     249       --         1.444 au  fA            1.00    249 A               1
                        (      39.286 eV)
   250     250       --         1.448 au  fA            1.00    250 A               1
                        (      39.415 eV)
   251     251       --         1.460 au  fA            1.00    251 A               1
                        (      39.732 eV)
   252     252       --         1.467 au  fA            1.00    252 A               1
                        (      39.914 eV)
   253     253       --         1.480 au  fA            1.00    253 A               1
                        (      40.282 eV)
   254     254       --         1.495 au  fA            1.00    254 A               1
                        (      40.679 eV)
   255     255       --         1.504 au  fA            1.00    255 A               1
                        (      40.922 eV)
   256     256       --         1.510 au  fA            1.00    256 A               1
                        (      41.100 eV)
   257     257       --         1.523 au  fA            1.00    257 A               1
                        (      41.443 eV)
   258     258       --         1.539 au  fA            1.00    258 A               1
                        (      41.874 eV)
   259     259       --         1.546 au  fA            1.00    259 A               1
                        (      42.056 eV)
   260     260       --         1.553 au  fA            1.00    260 A               1
                        (      42.272 eV)
   261     261       --         1.558 au  fA            1.00    261 A               1
                        (      42.397 eV)
   262     262       --         1.574 au  fA            1.00    262 A               1
                        (      42.833 eV)
   263     263       --         1.587 au  fA            1.00    263 A               1
                        (      43.177 eV)
   264     264       --         1.606 au  fA            1.00    264 A               1
                        (      43.714 eV)
   265     265       --         1.614 au  fA            1.00    265 A               1
                        (      43.907 eV)
   266     266       --         1.630 au  fA            1.00    266 A               1
                        (      44.349 eV)
   267     267       --         1.651 au  fA            1.00    267 A               1
                        (      44.930 eV)
   268     268       --         1.661 au  fA            1.00    268 A               1
                        (      45.206 eV)
   269     269       --         1.670 au  fA            1.00    269 A               1
                        (      45.446 eV)
   270     270       --         1.679 au  fA            1.00    270 A               1
                        (      45.691 eV)
   271     271       --         1.694 au  fA            1.00    271 A               1
                        (      46.092 eV)
   272     272       --         1.707 au  fA            1.00    272 A               1
                        (      46.448 eV)
   273     273       --         1.710 au  fA            1.00    273 A               1
                        (      46.535 eV)
   274     274       --         1.720 au  fA            1.00    274 A               1
                        (      46.805 eV)
   275     275       --         1.729 au  fA            1.00    275 A               1
                        (      47.055 eV)
   276     276       --         1.739 au  fA            1.00    276 A               1
                        (      47.326 eV)
   277     277       --         1.749 au  fA            1.00    277 A               1
                        (      47.592 eV)
   278     278       --         1.760 au  fA            1.00    278 A               1
                        (      47.893 eV)
   279     279       --         1.768 au  fA            1.00    279 A               1
                        (      48.105 eV)
   280     280       --         1.776 au  fA            1.00    280 A               1
                        (      48.336 eV)
   281     281       --         1.784 au  fA            1.00    281 A               1
                        (      48.550 eV)
   282     282       --         1.811 au  fA            1.00    282 A               1
                        (      49.266 eV)
   283     283       --         1.828 au  fA            1.00    283 A               1
                        (      49.747 eV)
   284     284       --         1.835 au  fA            1.00    284 A               1
                        (      49.923 eV)
   285     285       --         1.846 au  fA            1.00    285 A               1
                        (      50.231 eV)
   286     286       --         1.865 au  fA            1.00    286 A               1
                        (      50.737 eV)
   287     287       --         1.882 au  fA            1.00    287 A               1
                        (      51.205 eV)
   288     288       --         1.891 au  fA            1.00    288 A               1
                        (      51.448 eV)
   289     289       --         1.893 au  fA            1.00    289 A               1
                        (      51.510 eV)
   290     290       --         1.903 au  fA            1.00    290 A               1
                        (      51.782 eV)
   291     291       --         1.910 au  fA            1.00    291 A               1
                        (      51.977 eV)
   292     292       --         1.927 au  fA            1.00    292 A               1
                        (      52.435 eV)
   293     293       --         1.934 au  fA            1.00    293 A               1
                        (      52.617 eV)
   294     294       --         1.936 au  fA            1.00    294 A               1
                        (      52.677 eV)
   295     295       --         1.957 au  fA            1.00    295 A               1
                        (      53.258 eV)
   296     296       --         1.971 au  fA            1.00    296 A               1
                        (      53.628 eV)
   297     297       --         1.983 au  fA            1.00    297 A               1
                        (      53.962 eV)
   298     298       --         1.984 au  fA            1.00    298 A               1
                        (      53.975 eV)
   299     299       --         1.998 au  fA            1.00    299 A               1
                        (      54.372 eV)
   300     300       --         2.023 au  fA            1.00    300 A               1
                        (      55.059 eV)
   301     301       --         2.028 au  fA            1.00    301 A               1
                        (      55.193 eV)
   302     302       --         2.035 au  fA            1.00    302 A               1
                        (      55.366 eV)
   303     303       --         2.043 au  fA            1.00    303 A               1
                        (      55.589 eV)
   304     304       --         2.060 au  fA            1.00    304 A               1
                        (      56.050 eV)
   305     305       --         2.076 au  fA            1.00    305 A               1
                        (      56.497 eV)
   306     306       --         2.089 au  fA            1.00    306 A               1
                        (      56.841 eV)
   307     307       --         2.110 au  fA            1.00    307 A               1
                        (      57.428 eV)
   308     308       --         2.142 au  fA            1.00    308 A               1
                        (      58.298 eV)
   309     309       --         2.162 au  fA            1.00    309 A               1
                        (      58.843 eV)
   310     310       --         2.196 au  fA            1.00    310 A               1
                        (      59.769 eV)
   311     311       --         2.200 au  fA            1.00    311 A               1
                        (      59.868 eV)
   312     312       --         2.214 au  fA            1.00    312 A               1
                        (      60.247 eV)
   313     313       --         2.229 au  fA            1.00    313 A               1
                        (      60.641 eV)
   314     314       --         2.258 au  fA            1.00    314 A               1
                        (      61.432 eV)
   315     315       --         2.280 au  fA            1.00    315 A               1
                        (      62.041 eV)
   316     316       --         2.295 au  fA            1.00    316 A               1
                        (      62.444 eV)
   317     317       --         2.320 au  fA            1.00    317 A               1
                        (      63.138 eV)
   318     318       --         2.325 au  fA            1.00    318 A               1
                        (      63.262 eV)
   319     319       --         2.328 au  fA            1.00    319 A               1
                        (      63.339 eV)
   320     320       --         2.336 au  fA            1.00    320 A               1
                        (      63.577 eV)
   321     321       --         2.345 au  fA            1.00    321 A               1
                        (      63.809 eV)
   322     322       --         2.371 au  fA            1.00    322 A               1
                        (      64.505 eV)
   323     323       --         2.385 au  fA            1.00    323 A               1
                        (      64.898 eV)
   324     324       --         2.398 au  fA            1.00    324 A               1
                        (      65.248 eV)
   325     325       --         2.423 au  fA            1.00    325 A               1
                        (      65.937 eV)
   326     326       --         2.439 au  fA            1.00    326 A               1
                        (      66.381 eV)
   327     327       --         2.453 au  fA            1.00    327 A               1
                        (      66.755 eV)
   328     328       --         2.469 au  fA            1.00    328 A               1
                        (      67.188 eV)
   329     329       --         2.472 au  fA            1.00    329 A               1
                        (      67.274 eV)
   330     330       --         2.503 au  fA            1.00    330 A               1
                        (      68.101 eV)
   331     331       --         2.515 au  fA            1.00    331 A               1
                        (      68.435 eV)
   332     332       --         2.523 au  fA            1.00    332 A               1
                        (      68.656 eV)
   333     333       --         2.526 au  fA            1.00    333 A               1
                        (      68.727 eV)
   334     334       --         2.556 au  fA            1.00    334 A               1
                        (      69.551 eV)
   335     335       --         2.561 au  fA            1.00    335 A               1
                        (      69.683 eV)
   336     336       --         2.570 au  fA            1.00    336 A               1
                        (      69.934 eV)
   337     337       --         2.597 au  fA            1.00    337 A               1
                        (      70.666 eV)
   338     338       --         2.631 au  fA            1.00    338 A               1
                        (      71.590 eV)
   339     339       --         2.659 au  fA            1.00    339 A               1
                        (      72.368 eV)
   340     340       --         2.669 au  fA            1.00    340 A               1
                        (      72.615 eV)
   341     341       --         2.681 au  fA            1.00    341 A               1
                        (      72.946 eV)
   342     342       --         2.697 au  fA            1.00    342 A               1
                        (      73.379 eV)
   343     343       --         2.720 au  fA            1.00    343 A               1
                        (      74.002 eV)
   344     344       --         2.737 au  fA            1.00    344 A               1
                        (      74.486 eV)
   345     345       --         2.740 au  fA            1.00    345 A               1
                        (      74.550 eV)
   346     346       --         2.752 au  fA            1.00    346 A               1
                        (      74.889 eV)
   347     347       --         2.764 au  fA            1.00    347 A               1
                        (      75.210 eV)
   348     348       --         2.780 au  fA            1.00    348 A               1
                        (      75.658 eV)
   349     349       --         2.790 au  fA            1.00    349 A               1
                        (      75.909 eV)
   350     350       --         2.799 au  fA            1.00    350 A               1
                        (      76.165 eV)
   351     351       --         2.811 au  fA            1.00    351 A               1
                        (      76.491 eV)
   352     352       --         2.824 au  fA            1.00    352 A               1
                        (      76.857 eV)
   353     353       --         2.836 au  fA            1.00    353 A               1
                        (      77.176 eV)
   354     354       --         2.846 au  fA            1.00    354 A               1
                        (      77.455 eV)
   355     355       --         2.857 au  fA            1.00    355 A               1
                        (      77.754 eV)
   356     356       --         2.880 au  fA            1.00    356 A               1
                        (      78.364 eV)
   357     357       --         2.894 au  fA            1.00    357 A               1
                        (      78.747 eV)
[...]
     450       53.7283         0.000       
     449       53.3656         0.000       
     448       53.3031         0.000       
     447       53.1309         0.000       
     446       53.0500         0.000       
     445       52.7439         0.000       
     444       52.5709         0.000       
     443       52.4973         0.000       
     442       52.2129         0.000       
     441       52.0953         0.000       
     440       51.7182         0.000       
     439       51.5606         0.000       
     438       51.5123         0.000       
     437       51.1574         0.000       
     436       50.9785         0.000       
     435       50.8128         0.000       
     434       50.3872         0.000       
     433       50.3394         0.000       
     432       50.1047         0.000       
     431       49.8154         0.000       
     430       49.6973         0.000       
     429       49.3996         0.000       
     428       49.1444         0.000       
     427       48.9556         0.000       
     426       48.6088         0.000       
     425       48.3162         0.000       
     424       48.2780         0.000       
     423       47.9513         0.000       
     422       47.8482         0.000       
     421       47.7609         0.000       
     420       47.5792         0.000       
     419       47.4048         0.000       
     418       47.2287         0.000       
     417       47.0806         0.000       
     416       46.6987         0.000       
     415       46.5867         0.000       
     414       46.2287         0.000       
     413       46.0678         0.000       
     412       45.9955         0.000       
     411       45.8527         0.000       
     410       45.5775         0.000       
     409       45.4463         0.000       
     408       45.3014         0.000       
     407       45.1788         0.000       
     406       45.0343         0.000       
     405       44.6916         0.000       
     404       44.5250         0.000       
     403       44.3099         0.000       
     402       44.1038         0.000       
     401       43.9285         0.000       
     400       43.7911         0.000       
     399       43.4628         0.000       
     398       43.4064         0.000       
     397       43.2598         0.000       
     396       42.9580         0.000       
     395       42.6989         0.000       
     394       42.5707         0.000       
     393       42.3582         0.000       
     392       42.0309         0.000       
     391       41.9416         0.000       
     390       41.6989         0.000       
     389       41.6779         0.000       
     388       41.4243         0.000       
     387       41.3245         0.000       
     386       40.8637         0.000       
     385       40.7561         0.000       
     384       40.6475         0.000       
     383       40.5146         0.000       
     382       40.3082         0.000       
     381       40.0371         0.000       
     380       39.8660         0.000       
     379       39.7794         0.000       
     378       39.4247         0.000       
     377       39.2258         0.000       
     376       38.8392         0.000       
     375       38.6246         0.000       
     374       38.5773         0.000       
     373       38.4630         0.000       
     372       38.2152         0.000       
     371       38.1285         0.000       
     370       38.0734         0.000       
     369       37.7945         0.000       
     368       37.6118         0.000       
     367       37.3298         0.000       
     366       37.2362         0.000       
     365       36.8229         0.000       
     364       36.7852         0.000       
     363       36.5148         0.000       
     362       36.3597         0.000       
     361       36.1847         0.000       
     360       36.1140         0.000       
     359       35.8111         0.000       
     358       35.7481         0.000       
     357       35.6281         0.000       
     356       35.5581         0.000       
     355       35.2084         0.000       
     354       35.0274         0.000       
     353       34.6934         0.000       
     352       34.5875         0.000       
     351       34.4915         0.000       
     350       34.2111         0.000       
     349       33.9923         0.000       
     348       33.8648         0.000       
     347       33.7890         0.000       
     346       33.6191         0.000       
     345       33.5122         0.000       
     344       33.3986         0.000       
     343       33.2738         0.000       
     342       33.0057         0.000       
     341       32.7424         0.000       
     340       32.6593         0.000       
     339       32.6089         0.000       
     338       32.4613         0.000       
     337       32.3721         0.000       
     336       32.1804         0.000       
     335       31.9600         0.000       
     334       31.9215         0.000       
     333       31.7216         0.000       
     332       31.4906         0.000       
     331       31.3397         0.000       
     330       31.1642         0.000       
     329       30.9797         0.000       
     328       30.7805         0.000       
     327       30.6627         0.000       
     326       30.4309         0.000       
     325       30.2389         0.000       
     324       30.1100         0.000       
     323       29.7711         0.000       
     322       29.7061         0.000       
     321       29.5363         0.000       
     320       29.4143         0.000       
     319       29.2938         0.000       
     318       29.0560         0.000       
     317       28.9340         0.000       
     316       28.8316         0.000       
     315       28.7341         0.000       
     314       28.5511         0.000       
     313       28.3213         0.000       
     312       28.0687         0.000       
     311       27.8513         0.000       
     310       27.7372         0.000       
     309       27.5332         0.000       
     308       27.3204         0.000       
     307       27.0916         0.000       
     306       26.9292         0.000       
     305       26.8234         0.000       
     304       26.7144         0.000       
     303       26.5200         0.000       
     302       26.3034         0.000       
     301       25.9852         0.000       
     300       25.6386         0.000       
     299       25.5907         0.000       
     298       25.2988         0.000       
     297       25.1771         0.000       
     296       25.1113         0.000       
     295       24.8222         0.000       
     294       24.7669         0.000       
     293       24.5847         0.000       
     292       24.3431         0.000       
     291       24.2211         0.000       
     290       23.9665         0.000       
     289       23.8477         0.000       
     288       23.8003         0.000       
     287       23.3932         0.000       
     286       23.2503         0.000       
     285       23.0814         0.000       
     284       22.9999         0.000       
     283       22.8707         0.000       
     282       22.8238         0.000       
     281       22.4393         0.000       
     280       22.3554         0.000       
     279       22.1718         0.000       
     278       22.0925         0.000       
     277       21.8734         0.000       
     276       21.5559         0.000       
     275       21.3127         0.000       
     274       21.2113         0.000       
     273       20.9127         0.000       
     272       20.8219         0.000       
     271       20.6931         0.000       
     270       20.6074         0.000       
     269       20.2152         0.000       
     268       20.0864         0.000       
     267       19.9433         0.000       
     266       19.7349         0.000       
     265       19.5052         0.000       
     264       19.3095         0.000       
     263       19.0892         0.000       
     262       18.8862         0.000       
     261       18.6780         0.000       
     260       18.5999         0.000       
     259       18.4226         0.000       
     258       18.2180         0.000       
     257       18.1457         0.000       
     256       17.9315         0.000       
     255       17.7653         0.000       
     254       17.4599         0.000       
     253       17.1869         0.000       
     252       17.1149         0.000       
     251       16.9228         0.000       
     250       16.8176         0.000       
     249       16.5276         0.000       
     248       16.3400         0.000       
     247       16.1708         0.000       
     246       15.8767         0.000       
     245       15.7758         0.000       
     244       15.5772         0.000       
     243       15.4727         0.000       
     242       15.1856         0.000       
     241       14.8736         0.000       
     240       14.6644         0.000       
     239       14.6465         0.000       
     238       14.4082         0.000       
     237       14.3191         0.000       
     236       14.2782         0.000       
     235       14.0004         0.000       
     234       13.8058         0.000       
     233       13.5054         0.000       
     232       13.3401         0.000       
     231       13.0618         0.000       
     230       12.8039         0.000       
     229       12.7033         0.000       
     228       12.6396         0.000       
     227       12.4936         0.000       
     226       12.3697         0.000       
     225       12.2550         0.000       
     224       12.0836         0.000       
     223       11.6742         0.000       
     222       11.6395         0.000       
     221       11.5386         0.000       
     220       11.3948         0.000       
     219       11.3535         0.000       
     218       11.1132         0.000       
     217       10.8901         0.000       
     216       10.7615         0.000       
     215       10.6991         0.000       
     214       10.5295         0.000       
     213       10.3292         0.000       
     212       10.0681         0.000       
     211       10.0294         0.000       
     210        9.9513         0.000       
     209        9.8984         0.000       
     208        9.8196         0.000       
     207        9.6469         0.000       
     206        9.4941         0.000       
     205        9.4367         0.000       
     204        9.3209         0.000       
     203        9.1879         0.000       
     202        9.0115         0.000       
     201        8.9801         0.000       
     200        8.8704         0.000       
     199        8.7009         0.000       
     198        8.5584         0.000       
     197        8.4312         0.000       
     196        8.2768         0.000       
     195        7.9663         0.000       
     194        7.7685         0.000       
     193        7.7054         0.000       
     192        7.6292         0.000       
     191        7.5663         0.000       
     190        7.5025         0.000       
     189        7.2945         0.000       
     188        7.1284         0.000       
     187        7.0014         0.000       
     186        6.8262         0.000       
     185        6.7215         0.000       
     184        6.6277         0.000       
     183        6.4818         0.000       
     182        6.2291         0.000       
     181        6.2060         0.000       
     180        6.0646         0.000       
     179        5.8939         0.000       
     178        5.6997         0.000       
     177        5.6972         0.000       
     176        5.4449         0.000       
     175        5.4152         0.000       
     174        5.2867         0.000       
     173        5.1427         0.000       
     172        5.0487         0.000       
     171        4.9285         0.000       
     170        4.8611         0.000       
     169        4.6595         0.000       
     168        4.5268         0.000       
     167        4.4398         0.000       
     166        4.3856         0.000       
     165        4.3534         0.000       
     164        4.2520         0.000       
     163        4.0378         0.000       
     162        3.9703         0.000       
     161        3.8670         0.000       
     160        3.8516         0.000       
     159        3.8195         0.000       
     158        3.6664         0.000       
     157        3.5799         0.000       
     156        3.3973         0.000       
     155        3.3361         0.000       
     154        3.1782         0.000       
     153        3.0584         0.000       
     152        2.9285         0.000       
     151        2.7997         0.000       
     150        2.6229         0.000       
     149        2.5403         0.000       
     148        2.3344         0.000       
     147        2.1612         0.000       
     146        1.9897         0.000       
     145        1.9754         0.000       
     144        1.8317         0.000       
     143        1.7495         0.000       
     142        1.5775         0.000       
     141        1.5521         0.000       
     140        1.3663         0.000       
     139        1.3084         0.000       
     138        1.2084         0.000       
     137        1.1162         0.000       
     136        0.9514         0.000       
     135        0.8466         0.000       
     134        0.7159         0.000       
     133        0.5999         0.000       
     132        0.5554         0.000       
     131        0.4497         0.000       
     130        0.1497         0.000       
     129        0.0332         0.000       
     128       -0.0889         0.000       
     127       -0.2806         0.000       
     126       -0.3950         0.000       
     125       -0.4040         0.000       
     124       -0.5625         0.000       
     123       -0.6146         0.000       
     122       -0.6659         0.000       
     121       -0.7877         0.000       
     120       -0.9346         0.000       
     119       -1.9188         0.000       
     118       -2.0673         0.000       
     117       -2.7038         0.000       
     116       -3.9182         0.000 < LUMO
     115       -6.6248         2.000 < HOMO
     114       -7.1400         2.000       
     113       -7.3499         2.000       
     112       -7.5144         2.000       
     111       -7.6914         2.000       
     110       -8.1507         2.000       
     109       -8.1583         2.000       
     108       -8.3809         2.000       
     107       -8.5908         2.000       
     106       -8.6871         2.000       
     105       -8.7288         2.000       
     104       -8.8876         2.000       
     103       -8.9371         2.000       
     102       -9.1098         2.000       
     101       -9.2227         2.000       
     100       -9.2685         2.000       
      99       -9.3620         2.000       
      98       -9.4158         2.000       
      97       -9.5408         2.000       
      96       -9.6595         2.000       
      95       -9.6715         2.000       
      94       -9.9129         2.000       
      93      -10.1938         2.000       
      92      -10.3230         2.000       
      91      -10.4128         2.000       
      90      -10.4706         2.000       
      89      -10.5717         2.000       
      88      -10.6302         2.000       
      87      -10.7414         2.000       
      86      -10.8455         2.000       
      85      -10.8827         2.000       
      84      -11.0005         2.000       
      83      -11.1066         2.000       
      82      -11.3340         2.000       
      81      -11.5113         2.000       
      80      -11.6417         2.000       
      79      -11.7987         2.000       
      78      -11.9094         2.000       
      77      -12.0471         2.000       
      76      -12.0813         2.000       
      75      -12.1505         2.000       
      74      -12.2051         2.000       
      73      -12.3633         2.000       
      72      -12.4556         2.000       
      71      -12.7412         2.000       
      70      -12.9051         2.000       
      69      -13.3734         2.000       
      68      -13.8200         2.000       
      67      -13.9464         2.000       
      66      -14.4716         2.000       
      65      -14.6802         2.000       
      64      -14.8038         2.000       
      63      -14.9671         2.000       
      62      -15.2957         2.000       
      61      -15.3431         2.000       
      60      -15.4921         2.000       
      59      -15.6749         2.000       
      58      -15.8025         2.000       
      57      -16.3542         2.000       
      56      -16.6105         2.000       
      55      -17.2544         2.000       
      54      -17.3253         2.000       
      53      -17.9593         2.000       
      52      -18.3195         2.000       
      51      -18.3689         2.000       
      50      -19.1908         2.000       
      49      -19.3962         2.000       
      48      -20.0376         2.000       
      47      -20.8965         2.000       
      46      -21.0593         2.000       
      45      -22.3331         2.000       
      44      -22.8088         2.000       
      43      -23.1143         2.000       
      42      -23.3132         2.000       
      41      -26.0921         2.000       
      40      -26.5866         2.000       
      39      -27.1178         2.000       
      38      -28.7296         2.000       
      37      -31.4324         2.000       
      36      -31.4919         2.000       
      35      -31.5600         2.000       
      34      -31.6353         2.000       
      33      -33.8141         2.000       
      32      -34.0006         2.000       
      31     -270.5829         2.000       
      30     -270.6881         2.000       
      29     -270.9386         2.000       
      28     -271.0271         2.000       
      27     -271.2442         2.000       
      26     -271.2544         2.000       
      25     -271.2853         2.000       
      24     -271.6770         2.000       
      23     -271.8366         2.000       
      22     -271.9329         2.000       
      21     -272.1585         2.000       
      20     -272.8186         2.000       
      19     -272.9275         2.000       
      18     -273.8240         2.000       
      17     -273.8894         2.000       
      16     -274.3622         2.000       
      15     -277.5515         2.000       
      14     -277.6490         2.000       
      13     -381.8700         2.000       
      12     -382.3079         2.000       
      11     -382.3305         2.000       
      10     -384.9913         2.000       
       9     -511.9982         2.000       
       8     -512.7589         2.000       
       7     -513.6775         2.000       
       6     -663.0706         2.000       
       5     -663.1286         2.000       
       4     -663.1594         2.000       
       3     -663.1677         2.000       
       2     -663.1688         2.000       
       1     -663.2691         2.000       

AMS application finished. Exiting.
NORMAL TERMINATION
     Total cpu time:     914.19
  Total system time:       5.64
 Total elapsed time:     924.66
NORMAL TERMINATION
