
 *******************************************************************************
 *                                                                             *
 *  --------------------------------                                           *
 *   Amsterdam Modeling Suite (AMS)              2026.103                      *
 *  --------------------------------                                           *
 *                                               r260501 2026-05-01 873454b5   *
 *                                                                             *
 *                                                                             *
 *                              =================                              *
 *                              |               |                              *
 *                              |     A M S     |                              *
 *                              |               |                              *
 *                              =================                              *
 *                                                                             *
 *                                                                             *
 *   Online information and documentation:  https://www.scm.com/support/       *
 *   E-mail:  support@scm.com   info@scm.com                                   *
 *                                                                             *
 *   Scientific publications using AMS results must be properly referenced     *
 *   See the User Manuals (or the web site) for recommended citations          *
 *   The terms and conditions of the End User License Agreement apply to       *
 *   the use of AMS, https://www.scm.com/license-terms/                        *
 *                                                                             *
 **********************  x86_64_linux_intel / intelmpi  ************************
 
 Licensed to: Jong-June Jeon / University of Seoul 2026-06-02 13:44:15
 SCM User ID: u30731
  
 AMS 2026.103  RunTime: Jun03-2026 22:52:59  ShM Nodes: 1  Procs: 1

 AMS jobname: c3_eda
 AMS jobid  : 185311231

 Start   directory: /gpfs/home1/yeseo1ee/projects/eda-asm-prediction/ADF_800/adf_outputs/batch_004/qmrxn20_e2_C_E_A_B_C_B/
 Results directory: /gpfs/home1/yeseo1ee/projects/eda-asm-prediction/ADF_800/adf_outputs/batch_004/qmrxn20_e2_C_E_A_B_C_B/c3_eda.results/
 Scratch directory: /tmp/amstmp_c3_eda_kid0.185311231/

 RNG seed: 783683944 1680581189 -1240870154 1648654222 -897787942 901102420 713243733 -1797497749



                      ************************************************************************
                      *  ADF 2026.103  RunTime: Jun03-2026 22:52:59  ShM Nodes: 1  Procs: 1  *
                      ************************************************************************
  

       ****************************
       * SINGLE POINT CALCULATION *
       ****************************

--------
Geometry
--------
Formula: C3H4BrFN3O2
Atoms
  Index Symbol   x (angstrom)   y (angstrom)   z (angstrom)
      1      F    -2.50270230     0.50230107     1.32821622 adf.f=fA
      2      H    -1.35108682     0.09285951     1.40166986 adf.f=fA
      3      C    -0.22761341    -0.09710954    -0.41763232 adf.f=fB
      4      C    -0.08057097    -0.05414300     1.07116821 adf.f=fB
      5     Br     1.57060994    -0.09487226    -1.34463717 adf.f=fB
      6      H     0.39934006     0.87174360     1.38744522 adf.f=fB
      7      C    -0.91912822    -1.29133997    -0.91713376 adf.f=fB
      8      N    -1.52769546    -2.18729129    -1.37193474 adf.f=fB
      9      N    -0.94520856     1.06858716    -0.91090396 adf.f=fB
     10      H    -0.38550470     1.88324341    -0.67575230 adf.f=fB
     11      H    -1.78140032     1.09819136    -0.31297232 adf.f=fB
     12      N     0.61995705    -1.15202200     1.69303168 adf.f=fB
     13      O     0.62995329    -2.25304998     1.13044448 adf.f=fB
     14      O     1.14083041    -0.94230808     2.79580089 adf.f=fB

Total System Charge             -1.00000


----------------
ADF Engine Input
----------------
 
   Basis
     Type TZ2P
     Core None
   End
   XC
     GGA BLYP
     Dispersion GRIMME3 BJDAMP
   End
   Symmetry NOSYM
   NumericalQuality Normal
   Unrestricted No
   SCF
     Iterations 200
     Converge 1.0e-6
   End
   fragments
     fA c1_fragA_ts.results/adf.rkf
     fB c2_fragB_ts.results/adf.rkf
   end
   etsnocv
     enocv 0.05
     ekmin 0.5
   end
   print etslowdin
   Save TAPE21
 

 Title: *** (NO TITLE) ***

 *** adf ***



 ===========================
 A T T A C H E D   F I L E S
 ===========================
  



 ===============================
 M O D E L   P A R A M E T E R S
 ===============================
  
 DENSITY FUNCTIONAL POTENTIAL (scf)
    LDA:                               Exchange only                           == Not Default ==
    Gradient Corrections:              Becke88 LYP                             == Not Default ==

 SPIN  (restricted / unrestr.)
    Molecule:                          Restricted                               
    Fragments:                         Restricted                               

 OTHER ASPECTS
    Relativistic Corrections:          scalar (ZORA,MAPA)                       

    Nuclear Charge Density Model:      Point Charge Nuclei                      
    Core Treatment:                    Frozen Orbital(s)                        

    Hyperfine or Zeeman Interaction:   ---                                      

 Settings for Grimme D3 dispersion correction

      damping                        BJ
      s6                          1.000
      s8                          2.700
      a1                          0.430
      a2                          4.236

 Other (technical) parameters

      alpha                      14.000
      version                         4
 


 Fragment File(s)
 ----------------
 fA:
         file : c1_fragA_ts.results/adf.rkf
         jobid: 751232124
         title: *** adf ***
 fB:
         file : c2_fragB_ts.results/adf.rkf
         jobid: 47509682
         title: *** adf ***



 ===============
 G E O M E T R Y  ***  3D  Molecule  ***
 ===============
  

 ATOMS
 =====                            X Y Z                    CHARGE
                                (Angstrom)             Nucl     +Core       At.Mass
                       --------------------------    ----------------       -------
    1  F              -2.5027    0.5023    1.3282      9.00      9.00       18.9984
    2  H              -1.3511    0.0929    1.4017      1.00      1.00        1.0078
    3  C              -0.2276   -0.0971   -0.4176      6.00      6.00       12.0000
    4  C              -0.0806   -0.0541    1.0712      6.00      6.00       12.0000
    5  Br              1.5706   -0.0949   -1.3446     35.00     35.00       78.9183
    6  H               0.3993    0.8717    1.3874      1.00      1.00        1.0078
    7  C              -0.9191   -1.2913   -0.9171      6.00      6.00       12.0000
    8  N              -1.5277   -2.1873   -1.3719      7.00      7.00       14.0031
    9  N              -0.9452    1.0686   -0.9109      7.00      7.00       14.0031
   10  H              -0.3855    1.8832   -0.6758      1.00      1.00        1.0078
   11  H              -1.7814    1.0982   -0.3130      1.00      1.00        1.0078
   12  N               0.6200   -1.1520    1.6930      7.00      7.00       14.0031
   13  O               0.6300   -2.2530    1.1304      8.00      8.00       15.9949
   14  O               1.1408   -0.9423    2.7958      8.00      8.00       15.9949


 FRAGMENTS
 =========                                     Atoms in this Fragment     Cart. coord.s (Angstrom)
                                               -------------------------------------------------------
    1  fA                                                1  F           -2.5027    0.5023    1.3282
                                                         2  H           -1.3511    0.0929    1.4017
    2  fB                                                3  C           -0.2276   -0.0971   -0.4176
                                                         4  C           -0.0806   -0.0541    1.0712
                                                         7  C           -0.9191   -1.2913   -0.9171
                                                         5  Br           1.5706   -0.0949   -1.3446
                                                         6  H            0.3993    0.8717    1.3874
                                                        10  H           -0.3855    1.8832   -0.6758
                                                        11  H           -1.7814    1.0982   -0.3130
                                                         8  N           -1.5277   -2.1873   -1.3719
                                                         9  N           -0.9452    1.0686   -0.9109
                                                        12  N            0.6200   -1.1520    1.6930
                                                        13  O            0.6300   -2.2530    1.1304
                                                        14  O            1.1408   -0.9423    2.7958


 Interatomic Distance Matrix (Angstrom)
 --------------------------------------

   1)     0.000
   2)     1.224   0.000
   3)     2.930   2.147   0.000
   4)     2.498   1.321   1.497   0.000
   5)     4.908   4.014   2.023   2.926   0.000
   6)     2.926   1.916   2.142   1.090   3.126   0.000
   7)     3.281   2.735   1.468   2.487   2.795   3.425   0.000
   8)     3.934   3.595   2.640   3.552   3.739   4.548   1.175   0.000
   9)     2.786   2.543   1.455   2.437   2.806   2.670   2.360   3.340   0.000
  10)     3.226   2.907   2.003   2.626   2.861   2.428   3.228   4.285   1.016   0.000
  11)     1.889   2.034   1.963   2.477   3.705   2.775   2.611   3.461   1.028   1.642
          0.000
  12)     3.553   2.349   2.507   1.443   3.354   2.059   3.033   3.883   3.763   3.979
          3.854   0.000
  13)     4.177   3.082   2.789   2.312   3.416   3.144   2.742   3.305   4.205   4.626
          4.374   1.236   0.000
  14)     4.185   3.037   3.593   2.292   4.248   2.413   4.260   5.103   4.705   4.729
          4.729   1.237   2.180   0.000

 Min. Distance =    1.0160
 Max. Distance =    5.1030



 =====================================
 S Y M M E T R Y ,   E L E C T R O N S
 =====================================
  
 Symmetry: NOSYM

 Irreducible Representations, including subspecies
 -------------------------------------------------
 A


 Configuration of Valence Electrons
 ==================================
 ( determined in the SCF procedure )

 Total:   104

 Net Charge: -1 (Nuclei minus Electrons)

 Aufbau principle for MO occupations will be applied through SCF cycle no.     100
 Thereafter, the program will assign electrons to MOs that are spatially
 similar to the occupied MOs in a "reference" cycle ("KeepOrbitals").
 The reference cycle is always the PREVIOUS cycle: it will evolve with
 the SCF procedure.
 ***************************************************************************************************



                                      ****************************************
                                      *  B U I L D : (Fragments, Functions)  *
                                      ****************************************
  

 The individual fragments are copies of the corresponding 'Master' fragments defined on the fragment files.
 However, they may have been rotated (and translated) with respect to the Master. The local coordinate axes
 of each fragment (which define for instance the spatial orientation in the current molecule of a fragment
 P:x orbital) are not necessarily those of the molecule.
 The local frame (if different from the molecular one) is printed to enable an interpretation of the expan-
 sion of an MO in Fragment Orbitals.



                                              ************************
                                              *  Fragment Type : fA  *
                                              ************************
  

 Fragment no.    1   (in the list of all fragments)
 -----------------
 The local coordinate frame is identical to the molecular frame.

 Check Atomic Coordinates:

                  Master (on file)          After Computed Tranformation               As specified on Input
           ----------------------------     ----------------------------     ---------------------------------
     1)    -2.50270   0.50230   1.32822     -2.50270   0.50230   1.32822       1  -2.50270   0.50230   1.32822
     2)    -1.35109   0.09286   1.40167     -1.35109   0.09286   1.40167       2  -1.35109   0.09286   1.40167



                                              ************************
                                              *  Fragment Type : fB  *
                                              ************************
  

 Fragment no.    2   (in the list of all fragments)
 -----------------
 The local coordinate frame is identical to the molecular frame.

 Check Atomic Coordinates:

                  Master (on file)          After Computed Tranformation               As specified on Input
           ----------------------------     ----------------------------     ---------------------------------
     1)    -0.22761  -0.09711  -0.41763     -0.22761  -0.09711  -0.41763       3  -0.22761  -0.09711  -0.41763
     2)    -0.08057  -0.05414   1.07117     -0.08057  -0.05414   1.07117       4  -0.08057  -0.05414   1.07117
     3)    -0.91913  -1.29134  -0.91713     -0.91913  -1.29134  -0.91713       7  -0.91913  -1.29134  -0.91713
     4)     1.57061  -0.09487  -1.34464      1.57061  -0.09487  -1.34464       5   1.57061  -0.09487  -1.34464
     5)     0.39934   0.87174   1.38745      0.39934   0.87174   1.38745       6   0.39934   0.87174   1.38745
     6)    -0.38550   1.88324  -0.67575     -0.38550   1.88324  -0.67575      10  -0.38550   1.88324  -0.67575
     7)    -1.78140   1.09819  -0.31297     -1.78140   1.09819  -0.31297      11  -1.78140   1.09819  -0.31297
     8)    -1.52770  -2.18729  -1.37193     -1.52770  -2.18729  -1.37193       8  -1.52770  -2.18729  -1.37193
     9)    -0.94521   1.06859  -0.91090     -0.94521   1.06859  -0.91090       9  -0.94521   1.06859  -0.91090
    10)     0.61996  -1.15202   1.69303      0.61996  -1.15202   1.69303      12   0.61996  -1.15202   1.69303
    11)     0.62995  -2.25305   1.13044      0.62995  -2.25305   1.13044      13   0.62995  -2.25305   1.13044
    12)     1.14083  -0.94231   2.79580      1.14083  -0.94231   2.79580      14   1.14083  -0.94231   2.79580



 =======
 S F O s  ***  (Symmetrized Fragment Orbitals)  ***
 =======
  
 SFOs are linear combinations of (valence) Fragment Orbitals (FOs), such that the SFOs transform as the
 irreducible representations of the (molecular) symmetry group. Each SFO is therefore characterized by
 an irrep of the molecule and by a few (or only one) generating FOs.
 The SFOs constitute a symmetry-adapted basis for the Fock matrix. The MO eigenvector coefficients in
 this basis provide a direct interpretation of the MOs in terms of Frontier Orbital Theory.

 The SFOs are combined with auxiliary Core Functions (CFs) to ensure orthogonalization on the (frozen)
 Core Orbitals (COs). The Core-orthogonalized SFOs (CSFOs) constitute the true Fock basis.

 The FOs, and hence also the (C)SFOs are combinations of the elementary basis functions (BAS). The basis
 functions that participate in the description of the SFOs depend on the irrep. The indices of the
 involved functions are printed below for each irrep.
 (The complete list of primitive basis functions is printed in another section)

 Total nr. of (C)SFOs (summation over all irreps) :   334

 NOTE: a (C)SFO that is defined as a combination of more than one FO is usually NOT normalized.



                                       === A ===
 Nr. of SFOs :  334
 Cartesian basis functions that participate in this irrep (total number =   381) :
      1     2     3     4     5     6     9    12     7    10
     13     8    11    14    15    16    17    18    19    20
     21    22    23    24    25    26    27    28    29    30
     31    32    33    34    35    36    37    38    39    40
     41    42    43    44    45    46    47    48    51    54
     49    52    55    50    53    56    57    58    59    60
     61    62    63    64    65    66    67    68    69    70
     71    72    73    74    75    76    77    78    81    84
     79    82    85    80    83    86    87    88    89    90
     91    92    93    94    95    96    97    98    99   100
    101   102   103   104   105   106   107   108   111   114
    109   112   115   110   113   116   117   118   119   120
    121   122   123   124   125   126   127   128   129   130
    131   132   133   134   135   142   143   168   169   170
    136   139   144   147   171   174   177   137   140   145
    148   172   175   178   138   141   146   149   173   176
    179   150   156   162   180   151   157   163   181   152
    158   164   182   153   159   165   183   154   160   166
    184   155   161   167   185   186   187   188   189   190
    191   192   193   194   195   196   197   198   199   200
    201   202   203   204   205   206   207   208   209   210
    211   212   213   214   215   216   217   218   219   220
    221   222   223   224   225   226   227   228   229   230
    231   232   233   234   235   236   237   240   243   238
    241   244   239   242   245   246   247   248   249   250
    251   252   253   254   255   256   257   258   259   260
    261   262   263   264   265   266   267   270   273   268
    271   274   269   272   275   276   277   278   279   280
    281   282   283   284   285   286   287   288   289   290
    291   292   293   294   295   296   297   300   303   298
    301   304   299   302   305   306   307   308   309   310
    311   312   313   314   315   316   317   318   319   320
    321   322   323   324   325   326   327   330   333   328
    331   334   329   332   335   336   337   338   339   340
    341   342   343   344   345   346   347   348   349   350
    351   352   353   354   355   356   357   360   363   358
    361   364   359   362   365   366   367   368   369   370
    371   372   373   374   375   376   377   378   379   380
    381

    SFO  (index         Fragment          Generating    Expansion in Fragment Orbitals
  indx  incl.CFs)   Occup   Orb.Energy   FragmentType  Coeff.   Orbital     on Fragment
 --------------------------------------------------------------------------------------
     1       1      2.000     -23.990 au  fA            1.00      1 A               1
                        (    -652.802 eV)
     2       2      2.000      -0.737 au  fA            1.00      2 A               1
                        (     -20.044 eV)
     3       3      2.000      -0.135 au  fA            1.00      3 A               1
                        (      -3.683 eV)
     4       4      2.000      -0.042 au  fA            1.00      4 A               1
                        (      -1.137 eV)
     5       5      2.000      -0.042 au  fA            1.00      5 A               1
                        (      -1.137 eV)
     6       6      1.000       0.149 au  fA            1.00      6 A               1
                        (       4.049 eV)
     7       7       --         0.256 au  fA            1.00      7 A               1
                        (       6.973 eV)
     8       8       --         0.348 au  fA            1.00      8 A               1
                        (       9.471 eV)
     9       9       --         0.644 au  fA            1.00      9 A               1
                        (      17.523 eV)
    10      10       --         0.644 au  fA            1.00     10 A               1
                        (      17.524 eV)
    11      11       --         0.881 au  fA            1.00     11 A               1
                        (      23.965 eV)
    12      12       --         0.881 au  fA            1.00     12 A               1
                        (      23.966 eV)
    13      13       --         0.892 au  fA            1.00     13 A               1
                        (      24.284 eV)
    14      14       --         1.179 au  fA            1.00     14 A               1
                        (      32.081 eV)
    15      15       --         1.400 au  fA            1.00     15 A               1
                        (      38.108 eV)
    16      16       --         1.429 au  fA            1.00     16 A               1
                        (      38.882 eV)
    17      17       --         1.429 au  fA            1.00     17 A               1
                        (      38.882 eV)
    18      18       --         1.718 au  fA            1.00     18 A               1
                        (      46.745 eV)
    19      19       --         1.718 au  fA            1.00     19 A               1
                        (      46.745 eV)
    20      20       --         2.096 au  fA            1.00     20 A               1
                        (      57.025 eV)
    21      21       --         2.840 au  fA            1.00     21 A               1
                        (      77.287 eV)
    22      22       --         2.840 au  fA            1.00     22 A               1
                        (      77.289 eV)
    23      23       --         3.079 au  fA            1.00     23 A               1
                        (      83.776 eV)
    24      24       --         3.329 au  fA            1.00     24 A               1
                        (      90.574 eV)
    25      25       --         3.329 au  fA            1.00     25 A               1
                        (      90.575 eV)
    26      26       --         3.764 au  fA            1.00     26 A               1
                        (     102.424 eV)
    27      27       --         3.764 au  fA            1.00     27 A               1
                        (     102.425 eV)
    28      28       --         4.125 au  fA            1.00     28 A               1
                        (     112.249 eV)
    29      29       --         4.125 au  fA            1.00     29 A               1
                        (     112.250 eV)
    30      30       --         4.144 au  fA            1.00     30 A               1
                        (     112.769 eV)
    31      31       --         4.479 au  fA            1.00     31 A               1
                        (     121.874 eV)
    32      32       --         4.880 au  fA            1.00     32 A               1
                        (     132.794 eV)
    33      33       --         4.880 au  fA            1.00     33 A               1
                        (     132.795 eV)
    34      34       --         5.309 au  fA            1.00     34 A               1
                        (     144.453 eV)
    35      35       --         5.309 au  fA            1.00     35 A               1
                        (     144.453 eV)
    36      36       --         6.274 au  fA            1.00     36 A               1
                        (     170.715 eV)
    37      37       --        52.206 au  fA            1.00     37 A               1
                        (    1420.588 eV)
    38      38      2.000    -488.666 au  fB            1.00      1 A               2
                        (  -13297.270 eV)
    39      39      2.000     -63.606 au  fB            1.00      2 A               2
                        (   -1730.796 eV)
    40      40      2.000     -56.145 au  fB            1.00      3 A               2
                        (   -1527.788 eV)
    41      41      2.000     -56.141 au  fB            1.00      4 A               2
                        (   -1527.676 eV)
    42      42      2.000     -56.140 au  fB            1.00      5 A               2
                        (   -1527.658 eV)
    43      43      2.000     -18.853 au  fB            1.00      6 A               2
                        (    -513.027 eV)
    44      44      2.000     -18.851 au  fB            1.00      7 A               2
                        (    -512.972 eV)
    45      45      2.000     -14.273 au  fB            1.00      8 A               2
                        (    -388.394 eV)
    46      46      2.000     -14.085 au  fB            1.00      9 A               2
                        (    -383.270 eV)
    47      47      2.000     -14.052 au  fB            1.00     10 A               2
                        (    -382.365 eV)
    48      48      2.000     -10.096 au  fB            1.00     11 A               2
                        (    -274.728 eV)
    49      49      2.000     -10.045 au  fB            1.00     12 A               2
                        (    -273.333 eV)
    50      50      2.000      -9.991 au  fB            1.00     13 A               2
                        (    -271.867 eV)
    51      51      2.000      -8.726 au  fB            1.00     14 A               2
                        (    -237.446 eV)
    52      52      2.000      -6.391 au  fB            1.00     15 A               2
                        (    -173.909 eV)
    53      53      2.000      -6.379 au  fB            1.00     16 A               2
                        (    -173.585 eV)
    54      54      2.000      -6.377 au  fB            1.00     17 A               2
                        (    -173.530 eV)
    55      55      2.000      -2.474 au  fB            1.00     18 A               2
                        (     -67.329 eV)
    56      56      2.000      -2.472 au  fB            1.00     19 A               2
                        (     -67.259 eV)
    57      57      2.000      -2.470 au  fB            1.00     20 A               2
                        (     -67.217 eV)
    58      58      2.000      -2.461 au  fB            1.00     21 A               2
                        (     -66.975 eV)
    59      59      2.000      -2.461 au  fB            1.00     22 A               2
                        (     -66.973 eV)
    60      60      2.000      -1.153 au  fB            1.00     23 A               2
                        (     -31.371 eV)
    61      61      2.000      -0.988 au  fB            1.00     24 A               2
                        (     -26.872 eV)
    62      62      2.000      -0.914 au  fB            1.00     25 A               2
                        (     -24.862 eV)
    63      63      2.000      -0.841 au  fB            1.00     26 A               2
                        (     -22.891 eV)
    64      64      2.000      -0.797 au  fB            1.00     27 A               2
                        (     -21.686 eV)
    65      65      2.000      -0.770 au  fB            1.00     28 A               2
                        (     -20.955 eV)
    66      66      2.000      -0.682 au  fB            1.00     29 A               2
                        (     -18.550 eV)
    67      67      2.000      -0.594 au  fB            1.00     30 A               2
                        (     -16.167 eV)
    68      68      2.000      -0.530 au  fB            1.00     31 A               2
                        (     -14.421 eV)
    69      69      2.000      -0.514 au  fB            1.00     32 A               2
                        (     -13.995 eV)
    70      70      2.000      -0.507 au  fB            1.00     33 A               2
                        (     -13.790 eV)
    71      71      2.000      -0.499 au  fB            1.00     34 A               2
                        (     -13.590 eV)
    72      72      2.000      -0.478 au  fB            1.00     35 A               2
                        (     -13.001 eV)
    73      73      2.000      -0.444 au  fB            1.00     36 A               2
                        (     -12.081 eV)
    74      74      2.000      -0.415 au  fB            1.00     37 A               2
                        (     -11.280 eV)
    75      75      2.000      -0.341 au  fB            1.00     38 A               2
                        (      -9.274 eV)
    76      76      2.000      -0.332 au  fB            1.00     39 A               2
                        (      -9.029 eV)
    77      77      2.000      -0.325 au  fB            1.00     40 A               2
                        (      -8.856 eV)
    78      78      2.000      -0.308 au  fB            1.00     41 A               2
                        (      -8.377 eV)
    79      79      2.000      -0.302 au  fB            1.00     42 A               2
                        (      -8.225 eV)
    80      80      2.000      -0.297 au  fB            1.00     43 A               2
                        (      -8.094 eV)
    81      81      2.000      -0.291 au  fB            1.00     44 A               2
                        (      -7.909 eV)
    82      82      2.000      -0.283 au  fB            1.00     45 A               2
                        (      -7.695 eV)
    83      83      2.000      -0.267 au  fB            1.00     46 A               2
                        (      -7.267 eV)
    84      84      1.000      -0.258 au  fB            1.00     47 A               2
                        (      -7.032 eV)
    85      85       --        -0.135 au  fB            1.00     48 A               2
                        (      -3.667 eV)
    86      86       --        -0.103 au  fB            1.00     49 A               2
                        (      -2.801 eV)
    87      87       --        -0.054 au  fB            1.00     50 A               2
                        (      -1.458 eV)
    88      88       --        -0.037 au  fB            1.00     51 A               2
                        (      -1.015 eV)
    89      89       --        -0.020 au  fB            1.00     52 A               2
                        (      -0.537 eV)
    90      90       --         0.005 au  fB            1.00     53 A               2
                        (       0.136 eV)
    91      91       --         0.025 au  fB            1.00     54 A               2
                        (       0.687 eV)
    92      92       --         0.054 au  fB            1.00     55 A               2
                        (       1.464 eV)
    93      93       --         0.070 au  fB            1.00     56 A               2
                        (       1.902 eV)
    94      94       --         0.084 au  fB            1.00     57 A               2
                        (       2.282 eV)
    95      95       --         0.091 au  fB            1.00     58 A               2
                        (       2.464 eV)
    96      96       --         0.113 au  fB            1.00     59 A               2
                        (       3.072 eV)
    97      97       --         0.125 au  fB            1.00     60 A               2
                        (       3.411 eV)
    98      98       --         0.137 au  fB            1.00     61 A               2
                        (       3.723 eV)
    99      99       --         0.144 au  fB            1.00     62 A               2
                        (       3.929 eV)
   100     100       --         0.164 au  fB            1.00     63 A               2
                        (       4.467 eV)
   101     101       --         0.167 au  fB            1.00     64 A               2
                        (       4.549 eV)
   102     102       --         0.182 au  fB            1.00     65 A               2
                        (       4.940 eV)
   103     103       --         0.184 au  fB            1.00     66 A               2
                        (       4.996 eV)
   104     104       --         0.200 au  fB            1.00     67 A               2
                        (       5.438 eV)
   105     105       --         0.217 au  fB            1.00     68 A               2
                        (       5.901 eV)
   106     106       --         0.223 au  fB            1.00     69 A               2
                        (       6.072 eV)
   107     107       --         0.239 au  fB            1.00     70 A               2
                        (       6.513 eV)
   108     108       --         0.245 au  fB            1.00     71 A               2
                        (       6.657 eV)
   109     109       --         0.253 au  fB            1.00     72 A               2
                        (       6.886 eV)
   110     110       --         0.261 au  fB            1.00     73 A               2
                        (       7.115 eV)
   111     111       --         0.280 au  fB            1.00     74 A               2
                        (       7.608 eV)
   112     112       --         0.293 au  fB            1.00     75 A               2
                        (       7.971 eV)
   113     113       --         0.302 au  fB            1.00     76 A               2
                        (       8.226 eV)
   114     114       --         0.346 au  fB            1.00     77 A               2
                        (       9.423 eV)
   115     115       --         0.352 au  fB            1.00     78 A               2
                        (       9.588 eV)
   116     116       --         0.357 au  fB            1.00     79 A               2
                        (       9.710 eV)
   117     117       --         0.381 au  fB            1.00     80 A               2
                        (      10.371 eV)
   118     118       --         0.388 au  fB            1.00     81 A               2
                        (      10.571 eV)
   119     119       --         0.410 au  fB            1.00     82 A               2
                        (      11.170 eV)
   120     120       --         0.438 au  fB            1.00     83 A               2
                        (      11.914 eV)
   121     121       --         0.449 au  fB            1.00     84 A               2
                        (      12.229 eV)
   122     122       --         0.462 au  fB            1.00     85 A               2
                        (      12.564 eV)
   123     123       --         0.470 au  fB            1.00     86 A               2
                        (      12.791 eV)
   124     124       --         0.494 au  fB            1.00     87 A               2
                        (      13.436 eV)
   125     125       --         0.501 au  fB            1.00     88 A               2
                        (      13.637 eV)
   126     126       --         0.535 au  fB            1.00     89 A               2
                        (      14.559 eV)
   127     127       --         0.567 au  fB            1.00     90 A               2
                        (      15.418 eV)
   128     128       --         0.580 au  fB            1.00     91 A               2
                        (      15.787 eV)
   129     129       --         0.598 au  fB            1.00     92 A               2
                        (      16.276 eV)
   130     130       --         0.636 au  fB            1.00     93 A               2
                        (      17.300 eV)
   131     131       --         0.654 au  fB            1.00     94 A               2
                        (      17.787 eV)
   132     132       --         0.672 au  fB            1.00     95 A               2
                        (      18.299 eV)
   133     133       --         0.708 au  fB            1.00     96 A               2
                        (      19.273 eV)
   134     134       --         0.727 au  fB            1.00     97 A               2
                        (      19.782 eV)
   135     135       --         0.749 au  fB            1.00     98 A               2
                        (      20.371 eV)
   136     136       --         0.764 au  fB            1.00     99 A               2
                        (      20.797 eV)
   137     137       --         0.803 au  fB            1.00    100 A               2
                        (      21.845 eV)
   138     138       --         0.809 au  fB            1.00    101 A               2
                        (      22.006 eV)
   139     139       --         0.826 au  fB            1.00    102 A               2
                        (      22.483 eV)
   140     140       --         0.832 au  fB            1.00    103 A               2
                        (      22.636 eV)
   141     141       --         0.864 au  fB            1.00    104 A               2
                        (      23.509 eV)
   142     142       --         0.895 au  fB            1.00    105 A               2
                        (      24.365 eV)
   143     143       --         0.905 au  fB            1.00    106 A               2
                        (      24.630 eV)
   144     144       --         0.923 au  fB            1.00    107 A               2
                        (      25.106 eV)
   145     145       --         0.939 au  fB            1.00    108 A               2
                        (      25.562 eV)
   146     146       --         0.953 au  fB            1.00    109 A               2
                        (      25.937 eV)
   147     147       --         0.996 au  fB            1.00    110 A               2
                        (      27.099 eV)
   148     148       --         1.012 au  fB            1.00    111 A               2
                        (      27.533 eV)
   149     149       --         1.033 au  fB            1.00    112 A               2
                        (      28.119 eV)
   150     150       --         1.039 au  fB            1.00    113 A               2
                        (      28.275 eV)
   151     151       --         1.062 au  fB            1.00    114 A               2
                        (      28.894 eV)
   152     152       --         1.087 au  fB            1.00    115 A               2
                        (      29.573 eV)
   153     153       --         1.121 au  fB            1.00    116 A               2
                        (      30.511 eV)
   154     154       --         1.123 au  fB            1.00    117 A               2
                        (      30.560 eV)
   155     155       --         1.166 au  fB            1.00    118 A               2
                        (      31.727 eV)
   156     156       --         1.181 au  fB            1.00    119 A               2
                        (      32.136 eV)
   157     157       --         1.198 au  fB            1.00    120 A               2
                        (      32.597 eV)
   158     158       --         1.215 au  fB            1.00    121 A               2
                        (      33.065 eV)
   159     159       --         1.231 au  fB            1.00    122 A               2
                        (      33.502 eV)
   160     160       --         1.246 au  fB            1.00    123 A               2
                        (      33.910 eV)
   161     161       --         1.258 au  fB            1.00    124 A               2
                        (      34.234 eV)
   162     162       --         1.277 au  fB            1.00    125 A               2
                        (      34.736 eV)
   163     163       --         1.290 au  fB            1.00    126 A               2
                        (      35.100 eV)
   164     164       --         1.319 au  fB            1.00    127 A               2
                        (      35.903 eV)
   165     165       --         1.348 au  fB            1.00    128 A               2
                        (      36.682 eV)
   166     166       --         1.367 au  fB            1.00    129 A               2
                        (      37.200 eV)
   167     167       --         1.412 au  fB            1.00    130 A               2
                        (      38.432 eV)
   168     168       --         1.459 au  fB            1.00    131 A               2
                        (      39.692 eV)
   169     169       --         1.482 au  fB            1.00    132 A               2
                        (      40.331 eV)
   170     170       --         1.509 au  fB            1.00    133 A               2
                        (      41.067 eV)
   171     171       --         1.522 au  fB            1.00    134 A               2
                        (      41.415 eV)
   172     172       --         1.556 au  fB            1.00    135 A               2
                        (      42.332 eV)
   173     173       --         1.582 au  fB            1.00    136 A               2
                        (      43.035 eV)
   174     174       --         1.595 au  fB            1.00    137 A               2
                        (      43.411 eV)
   175     175       --         1.633 au  fB            1.00    138 A               2
                        (      44.433 eV)
   176     176       --         1.661 au  fB            1.00    139 A               2
                        (      45.205 eV)
   177     177       --         1.700 au  fB            1.00    140 A               2
                        (      46.249 eV)
   178     178       --         1.734 au  fB            1.00    141 A               2
                        (      47.190 eV)
   179     179       --         1.780 au  fB            1.00    142 A               2
                        (      48.449 eV)
   180     180       --         1.788 au  fB            1.00    143 A               2
                        (      48.659 eV)
   181     181       --         1.831 au  fB            1.00    144 A               2
                        (      49.829 eV)
   182     182       --         1.839 au  fB            1.00    145 A               2
                        (      50.036 eV)
   183     183       --         1.875 au  fB            1.00    146 A               2
                        (      51.021 eV)
   184     184       --         1.901 au  fB            1.00    147 A               2
                        (      51.723 eV)
   185     185       --         1.921 au  fB            1.00    148 A               2
                        (      52.285 eV)
   186     186       --         1.996 au  fB            1.00    149 A               2
                        (      54.312 eV)
   187     187       --         2.025 au  fB            1.00    150 A               2
                        (      55.096 eV)
   188     188       --         2.046 au  fB            1.00    151 A               2
                        (      55.667 eV)
   189     189       --         2.111 au  fB            1.00    152 A               2
                        (      57.435 eV)
   190     190       --         2.141 au  fB            1.00    153 A               2
                        (      58.256 eV)
   191     191       --         2.156 au  fB            1.00    154 A               2
                        (      58.670 eV)
   192     192       --         2.212 au  fB            1.00    155 A               2
                        (      60.204 eV)
   193     193       --         2.234 au  fB            1.00    156 A               2
                        (      60.793 eV)
   194     194       --         2.246 au  fB            1.00    157 A               2
                        (      61.110 eV)
   195     195       --         2.302 au  fB            1.00    158 A               2
                        (      62.634 eV)
   196     196       --         2.322 au  fB            1.00    159 A               2
                        (      63.184 eV)
   197     197       --         2.377 au  fB            1.00    160 A               2
                        (      64.693 eV)
   198     198       --         2.413 au  fB            1.00    161 A               2
                        (      65.656 eV)
   199     199       --         2.424 au  fB            1.00    162 A               2
                        (      65.968 eV)
   200     200       --         2.468 au  fB            1.00    163 A               2
                        (      67.145 eV)
   201     201       --         2.542 au  fB            1.00    164 A               2
                        (      69.174 eV)
   202     202       --         2.551 au  fB            1.00    165 A               2
                        (      69.422 eV)
   203     203       --         2.569 au  fB            1.00    166 A               2
                        (      69.912 eV)
   204     204       --         2.640 au  fB            1.00    167 A               2
                        (      71.825 eV)
   205     205       --         2.690 au  fB            1.00    168 A               2
                        (      73.199 eV)
   206     206       --         2.708 au  fB            1.00    169 A               2
                        (      73.685 eV)
   207     207       --         2.749 au  fB            1.00    170 A               2
                        (      74.793 eV)
   208     208       --         2.791 au  fB            1.00    171 A               2
                        (      75.935 eV)
   209     209       --         2.805 au  fB            1.00    172 A               2
                        (      76.335 eV)
   210     210       --         2.847 au  fB            1.00    173 A               2
                        (      77.476 eV)
   211     211       --         2.850 au  fB            1.00    174 A               2
                        (      77.565 eV)
   212     212       --         2.900 au  fB            1.00    175 A               2
                        (      78.926 eV)
   213     213       --         2.980 au  fB            1.00    176 A               2
                        (      81.080 eV)
   214     214       --         3.000 au  fB            1.00    177 A               2
                        (      81.621 eV)
   215     215       --         3.010 au  fB            1.00    178 A               2
                        (      81.901 eV)
   216     216       --         3.082 au  fB            1.00    179 A               2
                        (      83.872 eV)
   217     217       --         3.123 au  fB            1.00    180 A               2
                        (      84.973 eV)
   218     218       --         3.177 au  fB            1.00    181 A               2
                        (      86.448 eV)
   219     219       --         3.194 au  fB            1.00    182 A               2
                        (      86.916 eV)
   220     220       --         3.243 au  fB            1.00    183 A               2
                        (      88.256 eV)
   221     221       --         3.313 au  fB            1.00    184 A               2
                        (      90.140 eV)
   222     222       --         3.321 au  fB            1.00    185 A               2
                        (      90.362 eV)
   223     223       --         3.339 au  fB            1.00    186 A               2
                        (      90.865 eV)
   224     224       --         3.379 au  fB            1.00    187 A               2
                        (      91.941 eV)
   225     225       --         3.402 au  fB            1.00    188 A               2
                        (      92.579 eV)
   226     226       --         3.426 au  fB            1.00    189 A               2
                        (      93.229 eV)
   227     227       --         3.457 au  fB            1.00    190 A               2
                        (      94.080 eV)
   228     228       --         3.487 au  fB            1.00    191 A               2
                        (      94.888 eV)
   229     229       --         3.505 au  fB            1.00    192 A               2
                        (      95.382 eV)
   230     230       --         3.525 au  fB            1.00    193 A               2
                        (      95.920 eV)
   231     231       --         3.562 au  fB            1.00    194 A               2
                        (      96.922 eV)
   232     232       --         3.579 au  fB            1.00    195 A               2
                        (      97.397 eV)
   233     233       --         3.593 au  fB            1.00    196 A               2
                        (      97.765 eV)
   234     234       --         3.614 au  fB            1.00    197 A               2
                        (      98.336 eV)
   235     235       --         3.657 au  fB            1.00    198 A               2
                        (      99.524 eV)
   236     236       --         3.672 au  fB            1.00    199 A               2
                        (      99.908 eV)
   237     237       --         3.740 au  fB            1.00    200 A               2
                        (     101.771 eV)
   238     238       --         3.756 au  fB            1.00    201 A               2
                        (     102.211 eV)
   239     239       --         3.792 au  fB            1.00    202 A               2
                        (     103.198 eV)
   240     240       --         3.814 au  fB            1.00    203 A               2
                        (     103.787 eV)
   241     241       --         3.826 au  fB            1.00    204 A               2
                        (     104.099 eV)
   242     242       --         3.862 au  fB            1.00    205 A               2
                        (     105.096 eV)
   243     243       --         3.874 au  fB            1.00    206 A               2
                        (     105.420 eV)
   244     244       --         3.881 au  fB            1.00    207 A               2
                        (     105.607 eV)
   245     245       --         3.899 au  fB            1.00    208 A               2
                        (     106.100 eV)
   246     246       --         3.934 au  fB            1.00    209 A               2
                        (     107.046 eV)
   247     247       --         3.975 au  fB            1.00    210 A               2
                        (     108.158 eV)
   248     248       --         4.009 au  fB            1.00    211 A               2
                        (     109.100 eV)
   249     249       --         4.036 au  fB            1.00    212 A               2
                        (     109.814 eV)
   250     250       --         4.066 au  fB            1.00    213 A               2
                        (     110.634 eV)
   251     251       --         4.077 au  fB            1.00    214 A               2
                        (     110.927 eV)
   252     252       --         4.112 au  fB            1.00    215 A               2
                        (     111.907 eV)
   253     253       --         4.154 au  fB            1.00    216 A               2
                        (     113.030 eV)
   254     254       --         4.197 au  fB            1.00    217 A               2
                        (     114.215 eV)
   255     255       --         4.228 au  fB            1.00    218 A               2
                        (     115.049 eV)
   256     256       --         4.280 au  fB            1.00    219 A               2
                        (     116.465 eV)
   257     257       --         4.305 au  fB            1.00    220 A               2
                        (     117.136 eV)
   258     258       --         4.369 au  fB            1.00    221 A               2
                        (     118.882 eV)
   259     259       --         4.393 au  fB            1.00    222 A               2
                        (     119.544 eV)
   260     260       --         4.419 au  fB            1.00    223 A               2
                        (     120.259 eV)
   261     261       --         4.445 au  fB            1.00    224 A               2
                        (     120.946 eV)
   262     262       --         4.482 au  fB            1.00    225 A               2
                        (     121.971 eV)
   263     263       --         4.545 au  fB            1.00    226 A               2
                        (     123.681 eV)
   264     264       --         4.587 au  fB            1.00    227 A               2
                        (     124.822 eV)
   265     265       --         4.652 au  fB            1.00    228 A               2
                        (     126.584 eV)
   266     266       --         4.720 au  fB            1.00    229 A               2
                        (     128.451 eV)
   267     267       --         4.732 au  fB            1.00    230 A               2
                        (     128.760 eV)
   268     268       --         4.823 au  fB            1.00    231 A               2
                        (     131.247 eV)
   269     269       --         4.825 au  fB            1.00    232 A               2
                        (     131.283 eV)
   270     270       --         4.878 au  fB            1.00    233 A               2
                        (     132.748 eV)
   271     271       --         4.948 au  fB            1.00    234 A               2
                        (     134.649 eV)
   272     272       --         4.970 au  fB            1.00    235 A               2
                        (     135.243 eV)
   273     273       --         5.053 au  fB            1.00    236 A               2
                        (     137.498 eV)
   274     274       --         5.094 au  fB            1.00    237 A               2
                        (     138.626 eV)
   275     275       --         5.137 au  fB            1.00    238 A               2
                        (     139.784 eV)
   276     276       --         5.192 au  fB            1.00    239 A               2
                        (     141.283 eV)
   277     277       --         5.313 au  fB            1.00    240 A               2
                        (     144.562 eV)
   278     278       --         5.388 au  fB            1.00    241 A               2
                        (     146.604 eV)
   279     279       --         5.473 au  fB            1.00    242 A               2
                        (     148.940 eV)
   280     280       --         5.540 au  fB            1.00    243 A               2
                        (     150.741 eV)
   281     281       --         5.641 au  fB            1.00    244 A               2
                        (     153.499 eV)
   282     282       --         5.681 au  fB            1.00    245 A               2
                        (     154.589 eV)
   283     283       --         5.763 au  fB            1.00    246 A               2
                        (     156.807 eV)
   284     284       --         5.901 au  fB            1.00    247 A               2
                        (     160.562 eV)
   285     285       --         5.932 au  fB            1.00    248 A               2
                        (     161.416 eV)
   286     286       --         6.085 au  fB            1.00    249 A               2
                        (     165.595 eV)
   287     287       --         6.125 au  fB            1.00    250 A               2
                        (     166.678 eV)
   288     288       --         6.189 au  fB            1.00    251 A               2
                        (     168.400 eV)
   289     289       --         6.239 au  fB            1.00    252 A               2
                        (     169.777 eV)
   290     290       --         6.303 au  fB            1.00    253 A               2
                        (     171.526 eV)
   291     291       --         6.351 au  fB            1.00    254 A               2
                        (     172.814 eV)
   292     292       --         6.431 au  fB            1.00    255 A               2
                        (     174.983 eV)
   293     293       --         6.585 au  fB            1.00    256 A               2
                        (     179.188 eV)
   294     294       --         6.705 au  fB            1.00    257 A               2
                        (     182.462 eV)
   295     295       --         6.737 au  fB            1.00    258 A               2
                        (     183.312 eV)
   296     296       --         6.796 au  fB            1.00    259 A               2
                        (     184.942 eV)
   297     297       --         6.917 au  fB            1.00    260 A               2
                        (     188.234 eV)
   298     298       --         6.969 au  fB            1.00    261 A               2
                        (     189.631 eV)
   299     299       --         7.365 au  fB            1.00    262 A               2
                        (     200.411 eV)
   300     300       --         7.476 au  fB            1.00    263 A               2
                        (     203.423 eV)
   301     301       --         7.509 au  fB            1.00    264 A               2
                        (     204.322 eV)
   302     302       --         7.585 au  fB            1.00    265 A               2
                        (     206.412 eV)
   303     303       --         7.637 au  fB            1.00    266 A               2
                        (     207.802 eV)
   304     304       --         7.810 au  fB            1.00    267 A               2
                        (     212.525 eV)
   305     305       --         8.330 au  fB            1.00    268 A               2
                        (     226.683 eV)
   306     306       --         8.622 au  fB            1.00    269 A               2
                        (     234.604 eV)
   307     307       --         8.746 au  fB            1.00    270 A               2
                        (     238.001 eV)
   308     308       --         8.892 au  fB            1.00    271 A               2
                        (     241.954 eV)
   309     309       --         8.947 au  fB            1.00    272 A               2
                        (     243.467 eV)
   310     310       --         9.203 au  fB            1.00    273 A               2
                        (     250.438 eV)
   311     311       --         9.564 au  fB            1.00    274 A               2
                        (     260.240 eV)
   312     312       --         9.655 au  fB            1.00    275 A               2
                        (     262.714 eV)
   313     313       --        10.466 au  fB            1.00    276 A               2
                        (     284.789 eV)
   314     314       --        11.413 au  fB            1.00    277 A               2
                        (     310.562 eV)
   315     315       --        14.589 au  fB            1.00    278 A               2
                        (     396.992 eV)
   316     316       --        15.635 au  fB            1.00    279 A               2
                        (     425.449 eV)
   317     317       --        15.880 au  fB            1.00    280 A               2
                        (     432.123 eV)
   318     318       --        20.653 au  fB            1.00    281 A               2
                        (     561.998 eV)
   319     319       --        20.681 au  fB            1.00    282 A               2
                        (     562.759 eV)
   320     320       --        21.171 au  fB            1.00    283 A               2
                        (     576.081 eV)
   321     321       --        21.218 au  fB            1.00    284 A               2
                        (     577.361 eV)
   322     322       --        21.429 au  fB            1.00    285 A               2
                        (     583.126 eV)
   323     323       --        54.962 au  fB            1.00    286 A               2
                        (    1495.581 eV)
   324     324       --        56.599 au  fB            1.00    287 A               2
                        (    1540.139 eV)
   325     325       --        58.652 au  fB            1.00    288 A               2
                        (    1596.000 eV)
   326     326       --        69.853 au  fB            1.00    289 A               2
                        (    1900.799 eV)
   327     327       --        71.196 au  fB            1.00    290 A               2
                        (    1937.350 eV)
   328     328       --        71.776 au  fB            1.00    291 A               2
                        (    1953.115 eV)
   329     329       --        95.938 au  fB            1.00    292 A               2
                        (    2610.600 eV)
   330     330       --        96.015 au  fB            1.00    293 A               2
                        (    2612.701 eV)
   331     331       --        97.394 au  fB            1.00    294 A               2
                        (    2650.220 eV)
   332     332       --       127.814 au  fB            1.00    295 A               2
                        (    3477.994 eV)
   333     333       --       128.634 au  fB            1.00    296 A               2
                        (    3500.299 eV)
   334     334       --       619.092 au  fB            1.00    297 A               2
                        (   16846.342 eV)



 ================================
 (Slater-type)  F U N C T I O N S  ***  (Basis and Fit)  ***
 ================================
  

 Atom Type    1  (F)
 ==============

 Valence Basis Sets:  10
 -----------------------
   1 S   10.880000
   1 S    7.700000
   2 S    3.240000
   2 S    1.940000
   2 S    0.740000
   2 P    4.540000
   2 P    2.300000
   2 P    1.240000
   3 D    2.000000
   4 F    3.000000

 Atom Type    2  (H)
 ==============

 Valence Basis Sets:   5
 -----------------------
   1 S    0.690000
   1 S    0.920000
   1 S    1.580000
   2 P    1.250000
   3 D    2.500000

 Atom Type    3  (C)
 ==============

 Valence Basis Sets:  10
 -----------------------
   1 S    7.680000
   1 S    5.000000
   2 S    1.280000
   2 S    2.100000
   2 S    4.600000
   2 P    0.820000
   2 P    1.480000
   2 P    2.940000
   3 D    2.200000
   4 F    3.300000

 Atom Type    4  (Br)
 ==============

 Valence Basis Sets:  20
 -----------------------
   1 S   41.300000
   1 S   32.800000
   2 S   13.900000
   2 P   19.450000
   2 P   13.100000
   3 S    7.200000
   3 S    4.950000
   3 P    7.900000
   3 P    5.050000
   3 D   10.900000
   3 D    6.050000
   3 D    3.500000
   4 S    4.500000
   4 S    2.800000
   4 S    1.800000
   4 P    3.250000
   4 P    1.950000
   4 P    1.200000
   4 D    1.800000
   4 F    1.800000

 Atom Type    5  (H)
 ==============

 Valence Basis Sets:   5
 -----------------------
   1 S    0.690000
   1 S    0.920000
   1 S    1.580000
   2 P    1.250000
   3 D    2.500000

 Atom Type    6  (N)
 ==============

 Valence Basis Sets:  10
 -----------------------
   1 S    8.740000
   1 S    5.900000
   2 S    5.150000
   2 S    2.500000
   2 S    1.500000
   2 P    3.680000
   2 P    1.880000
   2 P    1.000000
   3 D    2.200000
   4 F    3.300000

 Atom Type    7  (O)
 ==============

 Valence Basis Sets:  10
 -----------------------
   1 S    9.800000
   1 S    6.800000
   2 S    7.580000
   2 S    2.880000
   2 S    1.720000
   2 P    4.080000
   2 P    2.080000
   2 P    1.120000
   3 D    2.000000
   4 F    3.000000


 BAS: List of all Elementary Cartesian Basis Functions
 =====================================================

 The numbering in the list below (to the right of the function characteristics) is referred
 to in print-outs of MO eigenvectors and Mulliken populations in the BAS representation
 (as contrasted to the SFO representation).

 Notes:
 1. The functions are characterized by a polynomial prefactor (powers of x,y,z and r) and
    an exponential decay factor alpha.
 2. Since the basis sets are specific for an atom TYPE, the individual functions occur on
    all atoms of that type.
 3. The word 'Core' in the left margin signals that it is a Core Function (CF) : not a
    degree of freedom in the valence set, but only used to ensure orthogonalization of
    the other valence basis functions on the frozen Core Orbitals.


 (power of) X  Y  Z  R     Alpha  on Atom
            ==========     =====     ==========

 F                                    1
                                  ---------------------------------------------------------------------------
            0  0  0  0    10.880      1
            0  0  0  0     7.700      2
            0  0  0  1     3.240      3
            0  0  0  1     1.940      4
            0  0  0  1     0.740      5
            1  0  0  0     4.540      6
            0  1  0  0     4.540      7
            0  0  1  0     4.540      8
            1  0  0  0     2.300      9
            0  1  0  0     2.300     10
            0  0  1  0     2.300     11
            1  0  0  0     1.240     12
            0  1  0  0     1.240     13
            0  0  1  0     1.240     14
            2  0  0  0     2.000     15
            1  1  0  0     2.000     16
            1  0  1  0     2.000     17
            0  2  0  0     2.000     18
            0  1  1  0     2.000     19
            0  0  2  0     2.000     20
            3  0  0  0     3.000     21
            2  1  0  0     3.000     22
            2  0  1  0     3.000     23
            1  2  0  0     3.000     24
            1  1  1  0     3.000     25
            1  0  2  0     3.000     26
            0  3  0  0     3.000     27
            0  2  1  0     3.000     28
            0  1  2  0     3.000     29
            0  0  3  0     3.000     30

 H                                    2
                                  ---------------------------------------------------------------------------
            0  0  0  0     0.690     31
            0  0  0  0     0.920     32
            0  0  0  0     1.580     33
            1  0  0  0     1.250     34
            0  1  0  0     1.250     35
            0  0  1  0     1.250     36
            2  0  0  0     2.500     37
            1  1  0  0     2.500     38
            1  0  1  0     2.500     39
            0  2  0  0     2.500     40
            0  1  1  0     2.500     41
            0  0  2  0     2.500     42

 C                                    3    4    5
                                  ---------------------------------------------------------------------------
            0  0  0  0     7.680     43   73  103
            0  0  0  0     5.000     44   74  104
            0  0  0  1     1.280     45   75  105
            0  0  0  1     2.100     46   76  106
            0  0  0  1     4.600     47   77  107
            1  0  0  0     0.820     48   78  108
            0  1  0  0     0.820     49   79  109
            0  0  1  0     0.820     50   80  110
            1  0  0  0     1.480     51   81  111
            0  1  0  0     1.480     52   82  112
            0  0  1  0     1.480     53   83  113
            1  0  0  0     2.940     54   84  114
            0  1  0  0     2.940     55   85  115
            0  0  1  0     2.940     56   86  116
            2  0  0  0     2.200     57   87  117
            1  1  0  0     2.200     58   88  118
            1  0  1  0     2.200     59   89  119
            0  2  0  0     2.200     60   90  120
            0  1  1  0     2.200     61   91  121
            0  0  2  0     2.200     62   92  122
            3  0  0  0     3.300     63   93  123
            2  1  0  0     3.300     64   94  124
            2  0  1  0     3.300     65   95  125
            1  2  0  0     3.300     66   96  126
            1  1  1  0     3.300     67   97  127
            1  0  2  0     3.300     68   98  128
            0  3  0  0     3.300     69   99  129
            0  2  1  0     3.300     70  100  130
            0  1  2  0     3.300     71  101  131
            0  0  3  0     3.300     72  102  132

 Br                                   6
                                  ---------------------------------------------------------------------------
            0  0  0  0    41.300    133
            0  0  0  0    32.800    134
            0  0  0  1    13.900    135
            1  0  0  0    19.450    136
            0  1  0  0    19.450    137
            0  0  1  0    19.450    138
            1  0  0  0    13.100    139
            0  1  0  0    13.100    140
            0  0  1  0    13.100    141
            0  0  0  2     7.200    142
            0  0  0  2     4.950    143
            1  0  0  1     7.900    144
            0  1  0  1     7.900    145
            0  0  1  1     7.900    146
            1  0  0  1     5.050    147
            0  1  0  1     5.050    148
            0  0  1  1     5.050    149
            2  0  0  0    10.900    150
            1  1  0  0    10.900    151
            1  0  1  0    10.900    152
            0  2  0  0    10.900    153
            0  1  1  0    10.900    154
            0  0  2  0    10.900    155
            2  0  0  0     6.050    156
            1  1  0  0     6.050    157
            1  0  1  0     6.050    158
            0  2  0  0     6.050    159
            0  1  1  0     6.050    160
            0  0  2  0     6.050    161
            2  0  0  0     3.500    162
            1  1  0  0     3.500    163
            1  0  1  0     3.500    164
            0  2  0  0     3.500    165
            0  1  1  0     3.500    166
            0  0  2  0     3.500    167
            0  0  0  3     4.500    168
            0  0  0  3     2.800    169
            0  0  0  3     1.800    170
            1  0  0  2     3.250    171
            0  1  0  2     3.250    172
            0  0  1  2     3.250    173
            1  0  0  2     1.950    174
            0  1  0  2     1.950    175
            0  0  1  2     1.950    176
            1  0  0  2     1.200    177
            0  1  0  2     1.200    178
            0  0  1  2     1.200    179
            2  0  0  1     1.800    180
            1  1  0  1     1.800    181
            1  0  1  1     1.800    182
            0  2  0  1     1.800    183
            0  1  1  1     1.800    184
            0  0  2  1     1.800    185
            3  0  0  0     1.800    186
            2  1  0  0     1.800    187
            2  0  1  0     1.800    188
            1  2  0  0     1.800    189
            1  1  1  0     1.800    190
            1  0  2  0     1.800    191
            0  3  0  0     1.800    192
            0  2  1  0     1.800    193
            0  1  2  0     1.800    194
            0  0  3  0     1.800    195

 H                                    7    8    9
                                  ---------------------------------------------------------------------------
            0  0  0  0     0.690    196  208  220
            0  0  0  0     0.920    197  209  221
            0  0  0  0     1.580    198  210  222
            1  0  0  0     1.250    199  211  223
            0  1  0  0     1.250    200  212  224
            0  0  1  0     1.250    201  213  225
            2  0  0  0     2.500    202  214  226
            1  1  0  0     2.500    203  215  227
            1  0  1  0     2.500    204  216  228
            0  2  0  0     2.500    205  217  229
            0  1  1  0     2.500    206  218  230
            0  0  2  0     2.500    207  219  231

 N                                   10   11   12
                                  ---------------------------------------------------------------------------
            0  0  0  0     8.740    232  262  292
            0  0  0  0     5.900    233  263  293
            0  0  0  1     5.150    234  264  294
            0  0  0  1     2.500    235  265  295
            0  0  0  1     1.500    236  266  296
            1  0  0  0     3.680    237  267  297
            0  1  0  0     3.680    238  268  298
            0  0  1  0     3.680    239  269  299
            1  0  0  0     1.880    240  270  300
            0  1  0  0     1.880    241  271  301
            0  0  1  0     1.880    242  272  302
            1  0  0  0     1.000    243  273  303
            0  1  0  0     1.000    244  274  304
            0  0  1  0     1.000    245  275  305
            2  0  0  0     2.200    246  276  306
            1  1  0  0     2.200    247  277  307
            1  0  1  0     2.200    248  278  308
            0  2  0  0     2.200    249  279  309
            0  1  1  0     2.200    250  280  310
            0  0  2  0     2.200    251  281  311
            3  0  0  0     3.300    252  282  312
            2  1  0  0     3.300    253  283  313
            2  0  1  0     3.300    254  284  314
            1  2  0  0     3.300    255  285  315
            1  1  1  0     3.300    256  286  316
            1  0  2  0     3.300    257  287  317
            0  3  0  0     3.300    258  288  318
            0  2  1  0     3.300    259  289  319
            0  1  2  0     3.300    260  290  320
            0  0  3  0     3.300    261  291  321

 O                                   13   14
                                  ---------------------------------------------------------------------------
            0  0  0  0     9.800    322  352
            0  0  0  0     6.800    323  353
            0  0  0  1     7.580    324  354
            0  0  0  1     2.880    325  355
            0  0  0  1     1.720    326  356
            1  0  0  0     4.080    327  357
            0  1  0  0     4.080    328  358
            0  0  1  0     4.080    329  359
            1  0  0  0     2.080    330  360
            0  1  0  0     2.080    331  361
            0  0  1  0     2.080    332  362
            1  0  0  0     1.120    333  363
            0  1  0  0     1.120    334  364
            0  0  1  0     1.120    335  365
            2  0  0  0     2.000    336  366
            1  1  0  0     2.000    337  367
            1  0  1  0     2.000    338  368
            0  2  0  0     2.000    339  369
            0  1  1  0     2.000    340  370
            0  0  2  0     2.000    341  371
            3  0  0  0     3.000    342  372
            2  1  0  0     3.000    343  373
            2  0  1  0     3.000    344  374
            1  2  0  0     3.000    345  375
            1  1  1  0     3.000    346  376
            1  0  2  0     3.000    347  377
            0  3  0  0     3.000    348  378
            0  2  1  0     3.000    349  379
            0  1  2  0     3.000    350  380
            0  0  3  0     3.000    351  381

 Total number of charge fitting functions (nprimf)      1127
 Total number of Cartesian basis functions (naos)        381
 Total number of Cartesian core functions  (ncos)          0

 ***************************************************************************************************



                                              ***********************
                                              *  T E C H N I C A L  *
                                              ***********************
  



 =============================================================
 P A R A L L E L I Z A T I O N  and  V E C T O R I Z A T I O N
 =============================================================
  
 Nr of parallel processes:                                1
 Maximum vector length in NumInt loops:                 128



 =====================
 S C F   U P D A T E S
 =====================
  
 Max. nr. of cycles:                               200
 Convergence criterion:                              0.0000010000
   secondary criterion:                              0.0010000000

 Mix parameter (when DIIS does not apply):           0.2000000000
 Mixed ADIIS+SDIIS will be used                  
    Max number of expansion vectors:                10
    Pure ADIIS when Max([F,P]) is above              0.1000000000
    Pure SDIIS when Max([F,P]) is below              0.0010000000
 Automatic ElectronSmearing (in case of problematic SCF convergence) disabled



 =================
 P R E C I S I O N  ***  (General: NumInt, NeglectFunctionTails, ...)  ***
 =================
  

 NumInt:           Target precision:                 4.0000000000
 -------           Initial precision:                4.0000000000
                   Min. precision (optimization):    4.0000000000

 Neglect Functions:          Basis functions:        0.1000000000E-05
 ------------------          Fit functions:          0.1000000000E-05



 ===========================
 L I N E A R   S C A L I N G
 ===========================
  

 Cut-off radii density fit:                        0.1000000000E-07
 Overlap cut-off criterion AO matrix elements:     0.1000000000E-05
 Cut-offs for Coulomb potential and fitted density:0.1000000000E-07
 Cut-off criterion for Coulomb multipole terms:    0.1000000000E-07
 Progressive Convergence parameter:                 0.000000000    
 ***************************************************************************************************



                                            ***************************
                                            *  C O M P U T A T I O N  *
                                            ***************************
  

 Number of elements of the density matrix on this node (used, total):     72771     72771



 ===========================================
 Numerical Integration : Fuzzy Cells (Becke)
 ===========================================
  
 Becke grid quality: NORMAL         
  
 Lebedev angular grid order:             min:  11 max:  23
 Nr. of radial points:                   min:  46 max:  77

 Total nr. of points:      97593
 Nr. of blocks:              763
 Block length:               128
 Nr. of dummy points:         71


 Test of Precision of the Numerical Integration Grid
 ===================================================

 Integral of the Total Core Density:                   0.00000000000000



 ========================
 Density Fitting (zlmFit)
 ========================
  
 ZlmFit Fit Quality: NORMAL         
  
 Max L-expansion:                        min:   6 max:   7
 Nr. of radial interpolation points:     min:  39 max:  72



 =====
 S C F  ***  ScaSCF  ***
 =====
  
 Initial density matrix is calculated as sum of fragments

 CYCLE    1
 SCF Error: norm([F,P])=      1.313565820551, max([F,P])=      0.713594119352
 orbitals (Q,E):
 ---------------
 A :43...62          ( 2.00    -0.1733)  ( 2.00    -0.1667)  ( 2.00    -0.1605)  ( 2.00    -0.1436)
                     ( 2.00    -0.1363)  ( 2.00    -0.1127)  ( 2.00    -0.1047)  ( 2.00    -0.0881)
                     ( 2.00    -0.0844)  ( 2.00    -0.0695)  ( 0.00     0.0251)  ( 0.00     0.0557)
                     ( 0.00     0.1034)  ( 0.00     0.1214)  ( 0.00     0.1397)  ( 0.00     0.1661)
                     ( 0.00     0.1771)  ( 0.00     0.1842)  ( 0.00     0.2288)  ( 0.00     0.2339)

 CYCLE    2
   MIX coefficients:  0.8000  0.2000
 SCF Error: norm([F,P])=      0.486920494770, max([F,P])=      0.120531164513
 orbitals (Q,E):
 ---------------
 A :43...53          ( 2.00    -0.1702)  ( 2.00    -0.1585)  ( 2.00    -0.1508)  ( 2.00    -0.1390)
                     ( 2.00    -0.1373)  ( 2.00    -0.1181)  ( 2.00    -0.1092)  ( 2.00    -0.1070)
                     ( 2.00    -0.0985)  ( 2.00    -0.0851)  ( 0.00     0.0231)

 CYCLE    3
  SDIIS (wt  0.000): -0.1943  1.1943
 A-DIIS (wt  1.000):  0.0000  1.0000
  DIIS coefficients:  0.0000  1.0000
 SCF Error: norm([F,P])=      0.155432637153, max([F,P])=      0.033927876054
 orbitals (Q,E):
 ---------------
 A :43...53          ( 2.00    -0.1795)  ( 2.00    -0.1539)  ( 2.00    -0.1447)  ( 2.00    -0.1396)
[...]
                                    3.25%    37 A             -11.280  2.00     2 fB
                                    2.86%    50 A              -1.458  0.00     2 fB
                                    2.69%     9 A              17.523  0.00     1 fA
                                    2.06%    60 A               3.411  0.00     2 fB
                                    2.02%    44 A              -7.909  2.00     2 fB
                                    1.94%    72 A               6.886  0.00     2 fB
                                    1.80%    52 A              -0.537  0.00     2 fB
                                    1.67%    48 A              -3.667  0.00     2 fB
                                    1.41%    34 A             -13.590  2.00     2 fB
                                    1.39%    32 A             -13.995  2.00     2 fB
                                    1.32%    82 A              11.170  0.00     2 fB
                                    1.10%    57 A               2.282  0.00     2 fB
      -0.05614         7 A          8.10%    57 A               2.282  0.00     2 fB
                                    7.99%    31 A             -14.421  2.00     2 fB
                                    7.23%    42 A              -8.225  2.00     2 fB
                                    6.67%    45 A              -7.695  2.00     2 fB
                                    6.65%    55 A               1.464  0.00     2 fB
                                    5.38%    52 A              -0.537  0.00     2 fB
                                    5.19%    43 A              -8.094  2.00     2 fB
                                    4.99%    51 A              -1.015  0.00     2 fB
                                    4.47%     6 A               4.049  1.00     1 fA
                                    4.08%    36 A             -12.081  2.00     2 fB
                                    3.81%    56 A               1.902  0.00     2 fB
                                    3.03%    25 A             -24.862  2.00     2 fB
                                    2.98%    44 A              -7.909  2.00     2 fB
                                    2.91%    23 A             -31.371  2.00     2 fB
                                    2.80%    61 A               3.723  0.00     2 fB
                                    2.63%    59 A               3.072  0.00     2 fB
                                    2.60%    48 A              -3.667  0.00     2 fB
                                    2.51%    40 A              -8.856  2.00     2 fB
                                    2.25%    27 A             -21.686  2.00     2 fB
                                    2.08%    37 A             -11.280  2.00     2 fB
                                    1.92%     4 A              -1.137  2.00     1 fA
                                   -1.78%    30 A             -16.167  2.00     2 fB
                                   -1.52%    60 A               3.411  0.00     2 fB
                                    1.46%    73 A               7.115  0.00     2 fB
                                    1.45%    15 A              38.108  0.00     1 fA
                                    1.39%    70 A               6.513  0.00     2 fB
                                    1.01%    10 A              17.524  0.00     1 fA
       0.05524       327 A         24.78%    43 A              -8.094  2.00     2 fB
                                   10.38%    36 A             -12.081  2.00     2 fB
                                    9.17%    55 A               1.464  0.00     2 fB
                                    8.49%    57 A               2.282  0.00     2 fB
                                    7.26%     6 A               4.049  1.00     1 fA
                                    5.78%    52 A              -0.537  0.00     2 fB
                                   -5.47%    25 A             -24.862  2.00     2 fB
                                    4.91%    42 A              -8.225  2.00     2 fB
                                    4.21%    40 A              -8.856  2.00     2 fB
                                    4.14%    56 A               1.902  0.00     2 fB
                                    3.31%    59 A               3.072  0.00     2 fB
                                    3.15%    10 A              17.524  0.00     1 fA
                                    2.96%    12 A              23.966  0.00     1 fA
                                   -2.90%    23 A             -31.371  2.00     2 fB
                                    2.86%    48 A              -3.667  0.00     2 fB
                                    2.58%    35 A             -13.001  2.00     2 fB
                                   -2.45%    31 A             -14.421  2.00     2 fB
                                    2.43%    61 A               3.723  0.00     2 fB
                                   -2.42%    27 A             -21.686  2.00     2 fB
                                    2.38%    44 A              -7.909  2.00     2 fB
                                    2.08%    51 A              -1.015  0.00     2 fB
                                    2.06%    30 A             -16.167  2.00     2 fB
                                    1.92%    68 A               5.901  0.00     2 fB
                                    1.88%     8 A               9.471  0.00     1 fA
                                    1.49%    73 A               7.115  0.00     2 fB
                                    1.41%    33 A             -13.790  2.00     2 fB
                                    1.36%    70 A               6.513  0.00     2 fB
                                    1.30%     3 A              -3.683  2.00     1 fA
                                   -1.28%    54 A               0.687  0.00     2 fB
                                    1.25%    34 A             -13.590  2.00     2 fB
                                   -1.19%    60 A               3.411  0.00     2 fB
                                   -1.16%    28 A             -20.955  2.00     2 fB
                                    1.08%    15 A              38.108  0.00     1 fA
                                    1.06%    46 A              -7.267  2.00     2 fB
      -0.05061         8 A         16.20%    44 A              -7.909  2.00     2 fB
                                   13.68%    62 A               3.929  0.00     2 fB
                                   11.17%    39 A              -9.029  2.00     2 fB
                                    7.23%    54 A               0.687  0.00     2 fB
                                    6.66%    41 A              -8.377  2.00     2 fB
                                    5.13%    60 A               3.411  0.00     2 fB
                                    4.18%    63 A               4.467  0.00     2 fB
                                    3.60%    55 A               1.464  0.00     2 fB
                                    3.54%    34 A             -13.590  2.00     2 fB
                                    2.90%    45 A              -7.695  2.00     2 fB
                                    2.36%    40 A              -8.856  2.00     2 fB
                                    2.10%    36 A             -12.081  2.00     2 fB
                                    1.76%    52 A              -0.537  0.00     2 fB
                                    1.69%    37 A             -11.280  2.00     2 fB
                                    1.49%    64 A               4.549  0.00     2 fB
                                    1.44%    50 A              -1.458  0.00     2 fB
                                    1.16%    32 A             -13.995  2.00     2 fB
       0.05049       326 A         18.08%    62 A               3.929  0.00     2 fB
                                   17.46%    44 A              -7.909  2.00     2 fB
                                   10.43%    39 A              -9.029  2.00     2 fB
                                    7.95%    54 A               0.687  0.00     2 fB
                                    5.02%    60 A               3.411  0.00     2 fB
                                    4.74%    41 A              -8.377  2.00     2 fB
                                    3.99%    63 A               4.467  0.00     2 fB
                                    2.98%    34 A             -13.590  2.00     2 fB
                                    2.90%    55 A               1.464  0.00     2 fB
                                    2.67%    40 A              -8.856  2.00     2 fB
                                    2.26%    45 A              -7.695  2.00     2 fB
                                    1.87%    36 A             -12.081  2.00     2 fB
                                    1.46%    52 A              -0.537  0.00     2 fB
                                    1.36%    32 A             -13.995  2.00     2 fB
                                    1.35%    10 A              17.524  0.00     1 fA
                                    1.28%    37 A             -11.280  2.00     2 fB
                                    1.12%    50 A              -1.458  0.00     2 fB
                                    1.09%    12 A              23.966  0.00     1 fA
                                    1.06%    70 A               6.513  0.00     2 fB
                                    1.05%    64 A               4.549  0.00     2 fB
 Mulliken charges used for AMS results%charges...


    =====================
     CALCULATION RESULTS
    =====================

Energy (hartree)            -0.24555295


--------------
Atomic charges
--------------
  Index   Atom    Charge
      1      F   -0.6543
      2      H    0.3002
      3      C    0.3067
      4      C    0.1546
      5     Br   -0.3253
      6      H   -0.1992
      7      C    0.1744
      8      N   -0.3033
      9      N   -0.0677
     10      H   -0.0648
     11      H    0.0334
     12      N    0.5597
     13      O   -0.4461
     14      O   -0.4682


Dipole moment vector    (Debye):     3.71346191    5.57283618   -2.25091638
              magnitude (Debye):     7.06490814


-----------------------
Molecular orbitals info
-----------------------
n orbitals:              334
n spin:                    1

Note: only printing virtual orbitals with
      energy smaller than HOMO + 100. eV

HOMO (eV):              -2.4058
LUMO (eV):               0.7524
HOMO-LUMO gap (eV):      3.1581

   Index   Energy (eV)    Occupation
     212       97.0626         0.000       
     211       96.9227         0.000       
     210       96.7382         0.000       
     209       96.0816         0.000       
     208       95.7314         0.000       
     207       94.6937         0.000       
     206       93.2533         0.000       
     205       92.6305         0.000       
     204       91.8474         0.000       
     203       91.5000         0.000       
     202       91.1449         0.000       
     201       89.5987         0.000       
     200       88.3061         0.000       
     199       87.5971         0.000       
     198       86.5441         0.000       
     197       85.1975         0.000       
     196       84.2739         0.000       
     195       83.2849         0.000       
     194       83.2031         0.000       
     193       82.2894         0.000       
     192       81.6258         0.000       
     191       81.1457         0.000       
     190       79.6503         0.000       
     189       79.0531         0.000       
     188       78.1791         0.000       
     187       77.9112         0.000       
     186       76.1147         0.000       
     185       75.9315         0.000       
     184       75.3687         0.000       
     183       74.1957         0.000       
     182       72.9256         0.000       
     181       71.9212         0.000       
     180       71.0381         0.000       
     179       69.8777         0.000       
     178       69.2716         0.000       
     177       67.7624         0.000       
     176       67.5504         0.000       
     175       66.9666         0.000       
     174       65.8580         0.000       
     173       65.4337         0.000       
     172       63.7761         0.000       
     171       62.6040         0.000       
     170       62.4345         0.000       
     169       60.4526         0.000       
     168       60.0070         0.000       
     167       59.7026         0.000       
     166       58.6858         0.000       
     165       57.6874         0.000       
     164       57.1226         0.000       
     163       56.6821         0.000       
     162       56.0698         0.000       
     161       55.5808         0.000       
     160       54.9423         0.000       
     159       53.4724         0.000       
     158       52.5783         0.000       
     157       52.2537         0.000       
     156       50.9150         0.000       
     155       50.2507         0.000       
     154       49.5219         0.000       
     153       49.2212         0.000       
     152       48.4002         0.000       
     151       47.7407         0.000       
     150       46.3824         0.000       
     149       45.8801         0.000       
     148       45.5187         0.000       
     147       44.8602         0.000       
     146       44.4703         0.000       
     145       43.7784         0.000       
     144       43.4090         0.000       
     143       43.1749         0.000       
     142       41.5668         0.000       
     141       41.2215         0.000       
     140       40.4308         0.000       
     139       39.5648         0.000       
     138       39.1086         0.000       
     137       38.5457         0.000       
     136       38.3120         0.000       
     135       38.2696         0.000       
     134       37.8935         0.000       
     133       37.4542         0.000       
     132       37.0902         0.000       
     131       36.6878         0.000       
     130       36.2602         0.000       
     129       35.5503         0.000       
     128       34.8282         0.000       
     127       34.2311         0.000       
     126       33.9398         0.000       
     125       33.1367         0.000       
     124       32.8046         0.000       
     123       32.1921         0.000       
     122       31.7203         0.000       
     121       30.9135         0.000       
     120       30.3328         0.000       
     119       29.5763         0.000       
     118       29.4579         0.000       
     117       28.8428         0.000       
     116       28.3310         0.000       
     115       27.9970         0.000       
     114       27.6886         0.000       
     113       27.3250         0.000       
     112       26.6334         0.000       
     111       26.4838         0.000       
     110       26.0650         0.000       
     109       25.9332         0.000       
     108       25.0305         0.000       
     107       24.5579         0.000       
     106       24.3248         0.000       
     105       23.6101         0.000       
     104       23.0291         0.000       
     103       22.4947         0.000       
     102       21.9708         0.000       
     101       21.6023         0.000       
     100       20.6190         0.000       
      99       20.3378         0.000       
      98       20.0172         0.000       
      97       19.1299         0.000       
      96       18.3839         0.000       
      95       17.9089         0.000       
      94       17.4091         0.000       
      93       17.0310         0.000       
      92       16.6323         0.000       
      91       16.4442         0.000       
      90       16.0552         0.000       
      89       15.5638         0.000       
      88       15.0274         0.000       
      87       14.4222         0.000       
      86       14.1820         0.000       
      85       13.9650         0.000       
      84       13.6221         0.000       
      83       12.7854         0.000       
      82       12.1767         0.000       
      81       12.0682         0.000       
      80       11.7465         0.000       
      79       11.2987         0.000       
      78       10.9578         0.000       
      77       10.7928         0.000       
      76       10.6051         0.000       
      75       10.0941         0.000       
      74        9.8314         0.000       
      73        9.3736         0.000       
      72        9.1495         0.000       
      71        9.0526         0.000       
      70        8.7904         0.000       
      69        8.3742         0.000       
      68        8.1195         0.000       
      67        7.6764         0.000       
      66        7.4907         0.000       
      65        6.9958         0.000       
      64        6.8659         0.000       
      63        6.3143         0.000       
      62        6.1895         0.000       
      61        6.0855         0.000       
      60        5.0712         0.000       
      59        4.5409         0.000       
      58        4.4445         0.000       
      57        3.7016         0.000       
      56        3.0896         0.000       
      55        2.6974         0.000       
      54        1.3174         0.000       
      53        0.7524         0.000 < LUMO
      52       -2.4058         2.000 < HOMO
      51       -2.7271         2.000       
      50       -2.9759         2.000       
      49       -3.3865         2.000       
      48       -3.5060         2.000       
      47       -3.6087         2.000       
      46       -3.7362         2.000       
      45       -3.8997         2.000       
      44       -3.9222         2.000       
      43       -4.6984         2.000       
      42       -4.8171         2.000       
      41       -5.3471         2.000       
      40       -6.2905         2.000       
      39       -6.9946         2.000       
      38       -7.4958         2.000       
      37       -8.4457         2.000       
      36       -8.9624         2.000       
      35       -9.1830         2.000       
      34       -9.5785         2.000       
      33       -9.8642         2.000       
      32      -11.5448         2.000       
      31      -13.9615         2.000       
      30      -16.2775         2.000       
      29      -16.9405         2.000       
      28      -18.7467         2.000       
      27      -20.0851         2.000       
      26      -22.3009         2.000       
      25      -22.5221         2.000       
      24      -26.7654         2.000       
      23      -62.3537         2.000       
      22      -62.3551         2.000       
      21      -62.5903         2.000       
      20      -62.5987         2.000       
      19      -62.6748         2.000       
      18     -168.9256         2.000       
      17     -168.9357         2.000       
      16     -169.2491         2.000       
      15     -232.8084         2.000       
      14     -267.3921         2.000       
      13     -267.8093         2.000       
      12     -270.0524         2.000       
      11     -378.2157         2.000       
      10     -378.2443         2.000       
       9     -383.6920         2.000       
       8     -508.3522         2.000       
       7     -508.3968         2.000       
       6     -654.8603         2.000       
       5    -1523.0312         2.000       
       4    -1523.0354         2.000       
       3    -1523.1419         2.000       
       2    -1726.1603         2.000       
       1   -13292.6806         2.000       

AMS application finished. Exiting.
NORMAL TERMINATION
     Total cpu time:      95.98
  Total system time:       0.39
 Total elapsed time:      96.67
NORMAL TERMINATION
