
 *******************************************************************************
 *                                                                             *
 *  --------------------------------                                           *
 *   Amsterdam Modeling Suite (AMS)              2026.103                      *
 *  --------------------------------                                           *
 *                                               r260501 2026-05-01 873454b5   *
 *                                                                             *
 *                                                                             *
 *                              =================                              *
 *                              |               |                              *
 *                              |     A M S     |                              *
 *                              |               |                              *
 *                              =================                              *
 *                                                                             *
 *                                                                             *
 *   Online information and documentation:  https://www.scm.com/support/       *
 *   E-mail:  support@scm.com   info@scm.com                                   *
 *                                                                             *
 *   Scientific publications using AMS results must be properly referenced     *
 *   See the User Manuals (or the web site) for recommended citations          *
 *   The terms and conditions of the End User License Agreement apply to       *
 *   the use of AMS, https://www.scm.com/license-terms/                        *
 *                                                                             *
 **********************  x86_64_linux_intel / intelmpi  ************************
 
 Licensed to: Jong-June Jeon / University of Seoul 2026-06-02 13:44:15
 SCM User ID: u30731
  
 AMS 2026.103  RunTime: Jun02-2026 22:03:36  ShM Nodes: 1  Procs: 1

 AMS jobname: c3_eda
 AMS jobid  : 132849194

 Start   directory: /gpfs/home1/yeseo1ee/projects/eda-asm-prediction/ADF_800/adf_outputs/batch_000/dipolar_000114/
 Results directory: /gpfs/home1/yeseo1ee/projects/eda-asm-prediction/ADF_800/adf_outputs/batch_000/dipolar_000114/c3_eda.results/
 Scratch directory: /tmp/amstmp_c3_eda_kid0.132849194/

 RNG seed: -1485556075 -356630961 1448601472 1963843572 -1346347698 281129035 182949811 -815863047



                      ************************************************************************
                      *  ADF 2026.103  RunTime: Jun02-2026 22:03:36  ShM Nodes: 1  Procs: 1  *
                      ************************************************************************
  

       ****************************
       * SINGLE POINT CALCULATION *
       ****************************

--------
Geometry
--------
Formula: C12H12FNO3
Atoms
  Index Symbol   x (angstrom)   y (angstrom)   z (angstrom)
      1      C     2.98407000    -2.19175000    -0.69726000 adf.f=fA
      2      C     2.63525000    -0.85573000    -0.08241000 adf.f=fA
      3      O     3.39737000    -0.32173000     0.73041000 adf.f=fA
      4      C     1.48874000    -0.08273000    -0.55061000 adf.f=fA
      5      O     0.41232000    -0.51360000    -1.18689000 adf.f=fA
      6      C    -0.38800000    -1.53178000    -0.93694000 adf.f=fA
      7      C    -0.00664000    -2.77560000    -0.21752000 adf.f=fA
      8      C    -1.60256000    -1.45924000    -1.66574000 adf.f=fA
      9      N    -2.62357000    -1.42862000    -2.23154000 adf.f=fA
     10      H     2.86322000    -2.99953000     0.04072000 adf.f=fA
     11      H     4.05110000    -2.15041000    -0.96392000 adf.f=fA
     12      H     2.39642000    -2.42499000    -1.59283000 adf.f=fA
     13      H     1.66033000     0.98049000    -0.72171000 adf.f=fA
     14      H     0.64428000    -2.54858000     0.63807000 adf.f=fA
     15      H     0.52071000    -3.48593000    -0.87508000 adf.f=fA
     16      H    -0.91771000    -3.26801000     0.14950000 adf.f=fA
     17      C    -1.04589000    -0.35914000     1.39073000 adf.f=fB
     18      C    -2.09129000     0.76379000     1.16399000 adf.f=fB
     19      C    -1.79993000     1.45366000    -0.18013000 adf.f=fB
     20      C    -0.65686000     2.09037000     0.06582000 adf.f=fB
     21      F     0.13351000     2.77510000    -0.76148000 adf.f=fB
     22      C    -0.25960000     1.79703000     1.51488000 adf.f=fB
     23      O    -1.57921000     1.75646000     2.09614000 adf.f=fB
     24      C     0.12442000     0.29297000     1.60571000 adf.f=fB
     25      H    -1.29820000    -1.40020000     1.56960000 adf.f=fB
     26      H    -3.13494000     0.50757000     1.37309000 adf.f=fB
     27      H    -2.35029000     1.32905000    -1.10904000 adf.f=fB
     28      H     0.40679000     2.51473000     2.00474000 adf.f=fB
     29      H     1.06203000    -0.07239000     2.01551000 adf.f=fB

Total System Charge              0.00000


----------------
ADF Engine Input
----------------
 
   Basis
     Type TZ2P
     Core None
   End
   XC
     GGA BLYP
     Dispersion GRIMME3 BJDAMP
   End
   Symmetry NOSYM
   NumericalQuality Normal
   Unrestricted No
   SCF
     Iterations 200
     Converge 1.0e-6
   End
   fragments
     fA c1_fragA_ts.results/adf.rkf
     fB c2_fragB_ts.results/adf.rkf
   end
   etsnocv
     enocv 0.05
     ekmin 0.5
   end
   print etslowdin
   Save TAPE21
 

 Title: *** (NO TITLE) ***

 *** adf ***



 ===========================
 A T T A C H E D   F I L E S
 ===========================
  



 ===============================
 M O D E L   P A R A M E T E R S
 ===============================
  
 DENSITY FUNCTIONAL POTENTIAL (scf)
    LDA:                               Exchange only                           == Not Default ==
    Gradient Corrections:              Becke88 LYP                             == Not Default ==

 SPIN  (restricted / unrestr.)
    Molecule:                          Restricted                               
    Fragments:                         Restricted                               

 OTHER ASPECTS
    Relativistic Corrections:          scalar (ZORA,MAPA)                       

    Nuclear Charge Density Model:      Point Charge Nuclei                      
    Core Treatment:                    Frozen Orbital(s)                        

    Hyperfine or Zeeman Interaction:   ---                                      

 Settings for Grimme D3 dispersion correction

      damping                        BJ
      s6                          1.000
      s8                          2.700
      a1                          0.430
      a2                          4.236

 Other (technical) parameters

      alpha                      14.000
      version                         4
 


 Fragment File(s)
 ----------------
 fA:
         file : c1_fragA_ts.results/adf.rkf
         jobid: 235488870
         title: *** adf ***
 fB:
         file : c2_fragB_ts.results/adf.rkf
         jobid: 931167995
         title: *** adf ***



 ===============
 G E O M E T R Y  ***  3D  Molecule  ***
 ===============
  

 ATOMS
 =====                            X Y Z                    CHARGE
                                (Angstrom)             Nucl     +Core       At.Mass
                       --------------------------    ----------------       -------
    1  C               2.9841   -2.1917   -0.6973      6.00      6.00       12.0000
    2  C               2.6353   -0.8557   -0.0824      6.00      6.00       12.0000
    3  O               3.3974   -0.3217    0.7304      8.00      8.00       15.9949
    4  C               1.4887   -0.0827   -0.5506      6.00      6.00       12.0000
    5  O               0.4123   -0.5136   -1.1869      8.00      8.00       15.9949
    6  C              -0.3880   -1.5318   -0.9369      6.00      6.00       12.0000
    7  C              -0.0066   -2.7756   -0.2175      6.00      6.00       12.0000
    8  C              -1.6026   -1.4592   -1.6657      6.00      6.00       12.0000
    9  N              -2.6236   -1.4286   -2.2315      7.00      7.00       14.0031
   10  H               2.8632   -2.9995    0.0407      1.00      1.00        1.0078
   11  H               4.0511   -2.1504   -0.9639      1.00      1.00        1.0078
   12  H               2.3964   -2.4250   -1.5928      1.00      1.00        1.0078
   13  H               1.6603    0.9805   -0.7217      1.00      1.00        1.0078
   14  H               0.6443   -2.5486    0.6381      1.00      1.00        1.0078
   15  H               0.5207   -3.4859   -0.8751      1.00      1.00        1.0078
   16  H              -0.9177   -3.2680    0.1495      1.00      1.00        1.0078
   17  C              -1.0459   -0.3591    1.3907      6.00      6.00       12.0000
   18  C              -2.0913    0.7638    1.1640      6.00      6.00       12.0000
   19  C              -1.7999    1.4537   -0.1801      6.00      6.00       12.0000
   20  C              -0.6569    2.0904    0.0658      6.00      6.00       12.0000
   21  F               0.1335    2.7751   -0.7615      9.00      9.00       18.9984
   22  C              -0.2596    1.7970    1.5149      6.00      6.00       12.0000
   23  O              -1.5792    1.7565    2.0961      8.00      8.00       15.9949
   24  C               0.1244    0.2930    1.6057      6.00      6.00       12.0000
   25  H              -1.2982   -1.4002    1.5696      1.00      1.00        1.0078
   26  H              -3.1349    0.5076    1.3731      1.00      1.00        1.0078
   27  H              -2.3503    1.3290   -1.1090      1.00      1.00        1.0078
   28  H               0.4068    2.5147    2.0047      1.00      1.00        1.0078
   29  H               1.0620   -0.0724    2.0155      1.00      1.00        1.0078


 FRAGMENTS
 =========                                     Atoms in this Fragment     Cart. coord.s (Angstrom)
                                               -------------------------------------------------------
    1  fA                                                1  C            2.9841   -2.1917   -0.6973
                                                         2  C            2.6353   -0.8557   -0.0824
                                                         4  C            1.4887   -0.0827   -0.5506
                                                         6  C           -0.3880   -1.5318   -0.9369
                                                         7  C           -0.0066   -2.7756   -0.2175
                                                         8  C           -1.6026   -1.4592   -1.6657
                                                         3  O            3.3974   -0.3217    0.7304
                                                         5  O            0.4123   -0.5136   -1.1869
                                                         9  N           -2.6236   -1.4286   -2.2315
                                                        10  H            2.8632   -2.9995    0.0407
                                                        11  H            4.0511   -2.1504   -0.9639
                                                        12  H            2.3964   -2.4250   -1.5928
                                                        13  H            1.6603    0.9805   -0.7217
                                                        14  H            0.6443   -2.5486    0.6381
                                                        15  H            0.5207   -3.4859   -0.8751
                                                        16  H           -0.9177   -3.2680    0.1495
    2  fB                                               17  C           -1.0459   -0.3591    1.3907
                                                        18  C           -2.0913    0.7638    1.1640
                                                        19  C           -1.7999    1.4537   -0.1801
                                                        20  C           -0.6569    2.0904    0.0658
                                                        22  C           -0.2596    1.7970    1.5149
                                                        24  C            0.1244    0.2930    1.6057
                                                        21  F            0.1335    2.7751   -0.7615
                                                        23  O           -1.5792    1.7565    2.0961
                                                        25  H           -1.2982   -1.4002    1.5696
                                                        26  H           -3.1349    0.5076    1.3731
                                                        27  H           -2.3503    1.3290   -1.1090
                                                        28  H            0.4068    2.5147    2.0047
                                                        29  H            1.0620   -0.0724    2.0155



 =====================================
 S Y M M E T R Y ,   E L E C T R O N S
 =====================================
  
 Symmetry: NOSYM

 Irreducible Representations, including subspecies
 -------------------------------------------------
 A


 Configuration of Valence Electrons
 ==================================
 ( determined in the SCF procedure )

 Total:   124

 Net Charge: 0 (Nuclei minus Electrons)

 Aufbau principle for MO occupations will be applied through SCF cycle no.     100
 Thereafter, the program will assign electrons to MOs that are spatially
 similar to the occupied MOs in a "reference" cycle ("KeepOrbitals").
 The reference cycle is always the PREVIOUS cycle: it will evolve with
 the SCF procedure.
 ***************************************************************************************************



                                      ****************************************
                                      *  B U I L D : (Fragments, Functions)  *
                                      ****************************************
  

 The individual fragments are copies of the corresponding 'Master' fragments defined on the fragment files.
 However, they may have been rotated (and translated) with respect to the Master. The local coordinate axes
 of each fragment (which define for instance the spatial orientation in the current molecule of a fragment
 P:x orbital) are not necessarily those of the molecule.
 The local frame (if different from the molecular one) is printed to enable an interpretation of the expan-
 sion of an MO in Fragment Orbitals.



                                              ************************
                                              *  Fragment Type : fA  *
                                              ************************
  

 Fragment no.    1   (in the list of all fragments)
 -----------------
 The local coordinate frame is identical to the molecular frame.

 Check Atomic Coordinates:

                  Master (on file)          After Computed Tranformation               As specified on Input
           ----------------------------     ----------------------------     ---------------------------------
     1)     2.98407  -2.19175  -0.69726      2.98407  -2.19175  -0.69726       1   2.98407  -2.19175  -0.69726
     2)     2.63525  -0.85573  -0.08241      2.63525  -0.85573  -0.08241       2   2.63525  -0.85573  -0.08241
     3)     1.48874  -0.08273  -0.55061      1.48874  -0.08273  -0.55061       4   1.48874  -0.08273  -0.55061
     4)    -0.38800  -1.53178  -0.93694     -0.38800  -1.53178  -0.93694       6  -0.38800  -1.53178  -0.93694
     5)    -0.00664  -2.77560  -0.21752     -0.00664  -2.77560  -0.21752       7  -0.00664  -2.77560  -0.21752
     6)    -1.60256  -1.45924  -1.66574     -1.60256  -1.45924  -1.66574       8  -1.60256  -1.45924  -1.66574
     7)     3.39737  -0.32173   0.73041      3.39737  -0.32173   0.73041       3   3.39737  -0.32173   0.73041
     8)     0.41232  -0.51360  -1.18689      0.41232  -0.51360  -1.18689       5   0.41232  -0.51360  -1.18689
     9)    -2.62357  -1.42862  -2.23154     -2.62357  -1.42862  -2.23154       9  -2.62357  -1.42862  -2.23154
    10)     2.86322  -2.99953   0.04072      2.86322  -2.99953   0.04072      10   2.86322  -2.99953   0.04072
    11)     4.05110  -2.15041  -0.96392      4.05110  -2.15041  -0.96392      11   4.05110  -2.15041  -0.96392
    12)     2.39642  -2.42499  -1.59283      2.39642  -2.42499  -1.59283      12   2.39642  -2.42499  -1.59283
    13)     1.66033   0.98049  -0.72171      1.66033   0.98049  -0.72171      13   1.66033   0.98049  -0.72171
    14)     0.64428  -2.54858   0.63807      0.64428  -2.54858   0.63807      14   0.64428  -2.54858   0.63807
    15)     0.52071  -3.48593  -0.87508      0.52071  -3.48593  -0.87508      15   0.52071  -3.48593  -0.87508
    16)    -0.91771  -3.26801   0.14950     -0.91771  -3.26801   0.14950      16  -0.91771  -3.26801   0.14950



                                              ************************
                                              *  Fragment Type : fB  *
                                              ************************
  

 Fragment no.    2   (in the list of all fragments)
 -----------------
 The local coordinate frame is identical to the molecular frame.

 Check Atomic Coordinates:

                  Master (on file)          After Computed Tranformation               As specified on Input
           ----------------------------     ----------------------------     ---------------------------------
     1)    -1.04589  -0.35914   1.39073     -1.04589  -0.35914   1.39073      17  -1.04589  -0.35914   1.39073
     2)    -2.09129   0.76379   1.16399     -2.09129   0.76379   1.16399      18  -2.09129   0.76379   1.16399
     3)    -1.79993   1.45366  -0.18013     -1.79993   1.45366  -0.18013      19  -1.79993   1.45366  -0.18013
     4)    -0.65686   2.09037   0.06582     -0.65686   2.09037   0.06582      20  -0.65686   2.09037   0.06582
     5)    -0.25960   1.79703   1.51488     -0.25960   1.79703   1.51488      22  -0.25960   1.79703   1.51488
     6)     0.12442   0.29297   1.60571      0.12442   0.29297   1.60571      24   0.12442   0.29297   1.60571
     7)     0.13351   2.77510  -0.76148      0.13351   2.77510  -0.76148      21   0.13351   2.77510  -0.76148
     8)    -1.57921   1.75646   2.09614     -1.57921   1.75646   2.09614      23  -1.57921   1.75646   2.09614
     9)    -1.29820  -1.40020   1.56960     -1.29820  -1.40020   1.56960      25  -1.29820  -1.40020   1.56960
    10)    -3.13494   0.50757   1.37309     -3.13494   0.50757   1.37309      26  -3.13494   0.50757   1.37309
    11)    -2.35029   1.32905  -1.10904     -2.35029   1.32905  -1.10904      27  -2.35029   1.32905  -1.10904
    12)     0.40679   2.51473   2.00474      0.40679   2.51473   2.00474      28   0.40679   2.51473   2.00474
    13)     1.06203  -0.07239   2.01551      1.06203  -0.07239   2.01551      29   1.06203  -0.07239   2.01551



 =======
 S F O s  ***  (Symmetrized Fragment Orbitals)  ***
 =======
  
 SFOs are linear combinations of (valence) Fragment Orbitals (FOs), such that the SFOs transform as the
 irreducible representations of the (molecular) symmetry group. Each SFO is therefore characterized by
 an irrep of the molecule and by a few (or only one) generating FOs.
 The SFOs constitute a symmetry-adapted basis for the Fock matrix. The MO eigenvector coefficients in
 this basis provide a direct interpretation of the MOs in terms of Frontier Orbital Theory.

 The SFOs are combined with auxiliary Core Functions (CFs) to ensure orthogonalization on the (frozen)
 Core Orbitals (COs). The Core-orthogonalized SFOs (CSFOs) constitute the true Fock basis.

 The FOs, and hence also the (C)SFOs are combinations of the elementary basis functions (BAS). The basis
 functions that participate in the description of the SFOs depend on the irrep. The indices of the
 involved functions are printed below for each irrep.
 (The complete list of primitive basis functions is printed in another section)

 Total nr. of (C)SFOs (summation over all irreps) :   574

 NOTE: a (C)SFO that is defined as a combination of more than one FO is usually NOT normalized.



                                       === A ===
 Nr. of SFOs :  574
 Cartesian basis functions that participate in this irrep (total number =   654) :
      1     2     3     4     5     6     9    12     7    10
     13     8    11    14    15    16    17    18    19    20
     21    22    23    24    25    26    27    28    29    30
     31    32    33    34    35    36    39    42    37    40
     43    38    41    44    45    46    47    48    49    50
     51    52    53    54    55    56    57    58    59    60
     61    62    63    64    65    66    69    72    67    70
     73    68    71    74    75    76    77    78    79    80
     81    82    83    84    85    86    87    88    89    90
     91    92    93    94    95    96    99   102    97   100
    103    98   101   104   105   106   107   108   109   110
    111   112   113   114   115   116   117   118   119   120
    121   122   123   124   125   126   129   132   127   130
    133   128   131   134   135   136   137   138   139   140
    141   142   143   144   145   146   147   148   149   150
    151   152   153   154   155   156   159   162   157   160
    163   158   161   164   165   166   167   168   169   170
    171   172   173   174   175   176   177   178   179   180
    181   182   183   184   185   186   189   192   187   190
    193   188   191   194   195   196   197   198   199   200
    201   202   203   204   205   206   207   208   209   210
    211   212   213   214   215   216   219   222   217   220
    223   218   221   224   225   226   227   228   229   230
    231   232   233   234   235   236   237   238   239   240
    241   242   243   244   245   246   249   252   247   250
    253   248   251   254   255   256   257   258   259   260
    261   262   263   264   265   266   267   268   269   270
    271   272   273   274   275   276   277   278   279   280
    281   282   283   284   285   286   287   288   289   290
    291   292   293   294   295   296   297   298   299   300
    301   302   303   304   305   306   307   308   309   310
    311   312   313   314   315   316   317   318   319   320
    321   322   323   324   325   326   327   328   329   330
    331   332   333   334   335   336   337   338   339   340
    341   342   343   344   345   346   347   348   349   350
    351   352   353   354   355   356   357   358   359   360
    363   366   361   364   367   362   365   368   369   370
    371   372   373   374   375   376   377   378   379   380
    381   382   383   384   385   386   387   388   389   390
    393   396   391   394   397   392   395   398   399   400
    401   402   403   404   405   406   407   408   409   410
    411   412   413   414   415   416   417   418   419   420
    423   426   421   424   427   422   425   428   429   430
    431   432   433   434   435   436   437   438   439   440
    441   442   443   444   445   446   447   448   449   450
    453   456   451   454   457   452   455   458   459   460
    461   462   463   464   465   466   467   468   469   470
    471   472   473   474   475   476   477   478   479   480
    483   486   481   484   487   482   485   488   489   490
    491   492   493   494   495   496   497   498   499   500
    501   502   503   504   505   506   507   508   509   510
    513   516   511   514   517   512   515   518   519   520
    521   522   523   524   525   526   527   528   529   530
    531   532   533   534   535   536   537   538   539   540
    543   546   541   544   547   542   545   548   549   550
    551   552   553   554   555   556   557   558   559   560
    561   562   563   564   565   566   567   568   569   570
    573   576   571   574   577   572   575   578   579   580
    581   582   583   584   585   586   587   588   589   590
    591   592   593   594   595   596   597   598   599   600
    601   602   603   604   605   606   607   608   609   610
    611   612   613   614   615   616   617   618   619   620
    621   622   623   624   625   626   627   628   629   630
    631   632   633   634   635   636   637   638   639   640
    641   642   643   644   645   646   647   648   649   650
    651   652   653   654

    SFO  (index         Fragment          Generating    Expansion in Fragment Orbitals
  indx  incl.CFs)   Occup   Orb.Energy   FragmentType  Coeff.   Orbital     on Fragment
 --------------------------------------------------------------------------------------
     1       1      2.000     -18.939 au  fA            1.00      1 A               1
                        (    -515.367 eV)
     2       2      2.000     -18.786 au  fA            1.00      2 A               1
                        (    -511.198 eV)
     3       3      2.000     -14.039 au  fA            1.00      3 A               1
                        (    -382.022 eV)
     4       4      2.000     -10.052 au  fA            1.00      4 A               1
                        (    -273.531 eV)
     5       5      2.000     -10.020 au  fA            1.00      5 A               1
                        (    -272.666 eV)
     6       6      2.000     -10.010 au  fA            1.00      6 A               1
                        (    -272.396 eV)
     7       7      2.000      -9.976 au  fA            1.00      7 A               1
                        (    -271.464 eV)
     8       8      2.000      -9.971 au  fA            1.00      8 A               1
                        (    -271.332 eV)
     9       9      2.000      -9.944 au  fA            1.00      9 A               1
                        (    -270.587 eV)
    10      10      2.000      -1.089 au  fA            1.00     10 A               1
                        (     -29.622 eV)
    11      11      2.000      -0.951 au  fA            1.00     11 A               1
                        (     -25.880 eV)
    12      12      2.000      -0.842 au  fA            1.00     12 A               1
                        (     -22.900 eV)
    13      13      2.000      -0.777 au  fA            1.00     13 A               1
                        (     -21.134 eV)
    14      14      2.000      -0.716 au  fA            1.00     14 A               1
                        (     -19.484 eV)
    15      15      2.000      -0.681 au  fA            1.00     15 A               1
                        (     -18.525 eV)
    16      16      2.000      -0.617 au  fA            1.00     16 A               1
                        (     -16.795 eV)
    17      17      2.000      -0.577 au  fA            1.00     17 A               1
                        (     -15.702 eV)
    18      18      2.000      -0.500 au  fA            1.00     18 A               1
                        (     -13.595 eV)
    19      19      2.000      -0.483 au  fA            1.00     19 A               1
                        (     -13.147 eV)
    20      20      2.000      -0.466 au  fA            1.00     20 A               1
                        (     -12.670 eV)
    21      21      2.000      -0.435 au  fA            1.00     21 A               1
                        (     -11.833 eV)
    22      22      2.000      -0.416 au  fA            1.00     22 A               1
                        (     -11.332 eV)
    23      23      2.000      -0.408 au  fA            1.00     23 A               1
                        (     -11.114 eV)
    24      24      2.000      -0.398 au  fA            1.00     24 A               1
                        (     -10.818 eV)
    25      25      2.000      -0.382 au  fA            1.00     25 A               1
                        (     -10.396 eV)
    26      26      2.000      -0.377 au  fA            1.00     26 A               1
                        (     -10.247 eV)
    27      27      2.000      -0.344 au  fA            1.00     27 A               1
                        (      -9.349 eV)
    28      28      2.000      -0.336 au  fA            1.00     28 A               1
                        (      -9.145 eV)
    29      29      2.000      -0.329 au  fA            1.00     29 A               1
                        (      -8.956 eV)
    30      30      2.000      -0.323 au  fA            1.00     30 A               1
                        (      -8.800 eV)
    31      31      2.000      -0.320 au  fA            1.00     31 A               1
                        (      -8.694 eV)
    32      32      2.000      -0.223 au  fA            1.00     32 A               1
                        (      -6.057 eV)
    33      33      2.000      -0.208 au  fA            1.00     33 A               1
                        (      -5.649 eV)
    34      34       --        -0.151 au  fA            1.00     34 A               1
                        (      -4.110 eV)
    35      35       --        -0.051 au  fA            1.00     35 A               1
                        (      -1.398 eV)
    36      36       --        -0.041 au  fA            1.00     36 A               1
                        (      -1.106 eV)
    37      37       --        -0.030 au  fA            1.00     37 A               1
                        (      -0.828 eV)
    38      38       --         0.005 au  fA            1.00     38 A               1
                        (       0.132 eV)
    39      39       --         0.010 au  fA            1.00     39 A               1
                        (       0.271 eV)
    40      40       --         0.014 au  fA            1.00     40 A               1
                        (       0.382 eV)
    41      41       --         0.024 au  fA            1.00     41 A               1
                        (       0.665 eV)
    42      42       --         0.043 au  fA            1.00     42 A               1
                        (       1.182 eV)
    43      43       --         0.048 au  fA            1.00     43 A               1
                        (       1.309 eV)
    44      44       --         0.065 au  fA            1.00     44 A               1
                        (       1.759 eV)
    45      45       --         0.075 au  fA            1.00     45 A               1
                        (       2.048 eV)
    46      46       --         0.084 au  fA            1.00     46 A               1
                        (       2.289 eV)
    47      47       --         0.101 au  fA            1.00     47 A               1
                        (       2.740 eV)
    48      48       --         0.114 au  fA            1.00     48 A               1
                        (       3.109 eV)
    49      49       --         0.124 au  fA            1.00     49 A               1
                        (       3.387 eV)
    50      50       --         0.146 au  fA            1.00     50 A               1
                        (       3.964 eV)
    51      51       --         0.160 au  fA            1.00     51 A               1
                        (       4.343 eV)
    52      52       --         0.169 au  fA            1.00     52 A               1
                        (       4.601 eV)
    53      53       --         0.176 au  fA            1.00     53 A               1
                        (       4.790 eV)
    54      54       --         0.182 au  fA            1.00     54 A               1
                        (       4.953 eV)
    55      55       --         0.198 au  fA            1.00     55 A               1
                        (       5.383 eV)
    56      56       --         0.215 au  fA            1.00     56 A               1
                        (       5.855 eV)
    57      57       --         0.222 au  fA            1.00     57 A               1
                        (       6.049 eV)
    58      58       --         0.239 au  fA            1.00     58 A               1
                        (       6.505 eV)
    59      59       --         0.251 au  fA            1.00     59 A               1
                        (       6.823 eV)
    60      60       --         0.258 au  fA            1.00     60 A               1
                        (       7.025 eV)
    61      61       --         0.275 au  fA            1.00     61 A               1
                        (       7.485 eV)
    62      62       --         0.286 au  fA            1.00     62 A               1
                        (       7.792 eV)
    63      63       --         0.301 au  fA            1.00     63 A               1
                        (       8.185 eV)
    64      64       --         0.308 au  fA            1.00     64 A               1
                        (       8.388 eV)
    65      65       --         0.326 au  fA            1.00     65 A               1
                        (       8.867 eV)
    66      66       --         0.334 au  fA            1.00     66 A               1
                        (       9.083 eV)
    67      67       --         0.342 au  fA            1.00     67 A               1
                        (       9.307 eV)
    68      68       --         0.367 au  fA            1.00     68 A               1
                        (       9.981 eV)
    69      69       --         0.369 au  fA            1.00     69 A               1
                        (      10.035 eV)
    70      70       --         0.394 au  fA            1.00     70 A               1
                        (      10.720 eV)
    71      71       --         0.405 au  fA            1.00     71 A               1
                        (      11.031 eV)
    72      72       --         0.415 au  fA            1.00     72 A               1
                        (      11.300 eV)
    73      73       --         0.419 au  fA            1.00     73 A               1
                        (      11.403 eV)
    74      74       --         0.432 au  fA            1.00     74 A               1
                        (      11.752 eV)
    75      75       --         0.467 au  fA            1.00     75 A               1
                        (      12.696 eV)
    76      76       --         0.474 au  fA            1.00     76 A               1
                        (      12.909 eV)
    77      77       --         0.483 au  fA            1.00     77 A               1
                        (      13.134 eV)
    78      78       --         0.501 au  fA            1.00     78 A               1
                        (      13.643 eV)
    79      79       --         0.549 au  fA            1.00     79 A               1
                        (      14.933 eV)
    80      80       --         0.568 au  fA            1.00     80 A               1
                        (      15.464 eV)
    81      81       --         0.581 au  fA            1.00     81 A               1
                        (      15.806 eV)
    82      82       --         0.598 au  fA            1.00     82 A               1
                        (      16.277 eV)
    83      83       --         0.630 au  fA            1.00     83 A               1
                        (      17.149 eV)
    84      84       --         0.654 au  fA            1.00     84 A               1
                        (      17.787 eV)
    85      85       --         0.670 au  fA            1.00     85 A               1
                        (      18.221 eV)
    86      86       --         0.696 au  fA            1.00     86 A               1
                        (      18.952 eV)
    87      87       --         0.711 au  fA            1.00     87 A               1
                        (      19.349 eV)
    88      88       --         0.723 au  fA            1.00     88 A               1
                        (      19.675 eV)
    89      89       --         0.739 au  fA            1.00     89 A               1
                        (      20.108 eV)
    90      90       --         0.787 au  fA            1.00     90 A               1
                        (      21.406 eV)
    91      91       --         0.801 au  fA            1.00     91 A               1
                        (      21.791 eV)
    92      92       --         0.836 au  fA            1.00     92 A               1
                        (      22.750 eV)
    93      93       --         0.849 au  fA            1.00     93 A               1
                        (      23.100 eV)
    94      94       --         0.874 au  fA            1.00     94 A               1
                        (      23.774 eV)
    95      95       --         0.888 au  fA            1.00     95 A               1
                        (      24.176 eV)
    96      96       --         0.904 au  fA            1.00     96 A               1
                        (      24.612 eV)
    97      97       --         0.932 au  fA            1.00     97 A               1
                        (      25.373 eV)
    98      98       --         0.957 au  fA            1.00     98 A               1
                        (      26.037 eV)
    99      99       --         0.974 au  fA            1.00     99 A               1
                        (      26.514 eV)
   100     100       --         0.989 au  fA            1.00    100 A               1
                        (      26.917 eV)
   101     101       --         1.014 au  fA            1.00    101 A               1
                        (      27.591 eV)
   102     102       --         1.032 au  fA            1.00    102 A               1
                        (      28.077 eV)
   103     103       --         1.048 au  fA            1.00    103 A               1
                        (      28.518 eV)
   104     104       --         1.060 au  fA            1.00    104 A               1
                        (      28.849 eV)
   105     105       --         1.070 au  fA            1.00    105 A               1
                        (      29.115 eV)
   106     106       --         1.086 au  fA            1.00    106 A               1
                        (      29.553 eV)
   107     107       --         1.096 au  fA            1.00    107 A               1
                        (      29.816 eV)
   108     108       --         1.112 au  fA            1.00    108 A               1
                        (      30.271 eV)
   109     109       --         1.131 au  fA            1.00    109 A               1
                        (      30.785 eV)
   110     110       --         1.141 au  fA            1.00    110 A               1
                        (      31.054 eV)
   111     111       --         1.170 au  fA            1.00    111 A               1
                        (      31.841 eV)
   112     112       --         1.186 au  fA            1.00    112 A               1
                        (      32.281 eV)
   113     113       --         1.207 au  fA            1.00    113 A               1
                        (      32.851 eV)
   114     114       --         1.231 au  fA            1.00    114 A               1
                        (      33.493 eV)
   115     115       --         1.233 au  fA            1.00    115 A               1
                        (      33.540 eV)
   116     116       --         1.263 au  fA            1.00    116 A               1
                        (      34.372 eV)
   117     117       --         1.281 au  fA            1.00    117 A               1
                        (      34.849 eV)
   118     118       --         1.316 au  fA            1.00    118 A               1
                        (      35.813 eV)
   119     119       --         1.323 au  fA            1.00    119 A               1
                        (      36.010 eV)
   120     120       --         1.366 au  fA            1.00    120 A               1
                        (      37.163 eV)
   121     121       --         1.374 au  fA            1.00    121 A               1
                        (      37.391 eV)
   122     122       --         1.408 au  fA            1.00    122 A               1
                        (      38.308 eV)
   123     123       --         1.457 au  fA            1.00    123 A               1
                        (      39.641 eV)
   124     124       --         1.478 au  fA            1.00    124 A               1
                        (      40.206 eV)
   125     125       --         1.503 au  fA            1.00    125 A               1
                        (      40.907 eV)
   126     126       --         1.550 au  fA            1.00    126 A               1
                        (      42.167 eV)
   127     127       --         1.559 au  fA            1.00    127 A               1
                        (      42.425 eV)
   128     128       --         1.605 au  fA            1.00    128 A               1
                        (      43.674 eV)
   129     129       --         1.617 au  fA            1.00    129 A               1
                        (      43.994 eV)
   130     130       --         1.625 au  fA            1.00    130 A               1
                        (      44.217 eV)
   131     131       --         1.642 au  fA            1.00    131 A               1
                        (      44.673 eV)
   132     132       --         1.664 au  fA            1.00    132 A               1
                        (      45.290 eV)
   133     133       --         1.676 au  fA            1.00    133 A               1
                        (      45.603 eV)
   134     134       --         1.688 au  fA            1.00    134 A               1
                        (      45.928 eV)
   135     135       --         1.727 au  fA            1.00    135 A               1
                        (      46.988 eV)
   136     136       --         1.787 au  fA            1.00    136 A               1
                        (      48.631 eV)
   137     137       --         1.795 au  fA            1.00    137 A               1
                        (      48.857 eV)
   138     138       --         1.836 au  fA            1.00    138 A               1
                        (      49.970 eV)
   139     139       --         1.857 au  fA            1.00    139 A               1
                        (      50.525 eV)
   140     140       --         1.895 au  fA            1.00    140 A               1
                        (      51.569 eV)
   141     141       --         1.904 au  fA            1.00    141 A               1
                        (      51.801 eV)
   142     142       --         1.948 au  fA            1.00    142 A               1
                        (      53.014 eV)
   143     143       --         1.953 au  fA            1.00    143 A               1
                        (      53.137 eV)
   144     144       --         1.971 au  fA            1.00    144 A               1
                        (      53.643 eV)
   145     145       --         1.998 au  fA            1.00    145 A               1
                        (      54.381 eV)
   146     146       --         2.043 au  fA            1.00    146 A               1
                        (      55.587 eV)
   147     147       --         2.067 au  fA            1.00    147 A               1
                        (      56.238 eV)
   148     148       --         2.098 au  fA            1.00    148 A               1
                        (      57.091 eV)
   149     149       --         2.135 au  fA            1.00    149 A               1
                        (      58.087 eV)
   150     150       --         2.143 au  fA            1.00    150 A               1
                        (      58.315 eV)
   151     151       --         2.171 au  fA            1.00    151 A               1
                        (      59.063 eV)
   152     152       --         2.206 au  fA            1.00    152 A               1
                        (      60.028 eV)
   153     153       --         2.214 au  fA            1.00    153 A               1
                        (      60.247 eV)
   154     154       --         2.251 au  fA            1.00    154 A               1
                        (      61.258 eV)
   155     155       --         2.294 au  fA            1.00    155 A               1
                        (      62.417 eV)
   156     156       --         2.312 au  fA            1.00    156 A               1
                        (      62.923 eV)
   157     157       --         2.335 au  fA            1.00    157 A               1
                        (      63.535 eV)
   158     158       --         2.346 au  fA            1.00    158 A               1
                        (      63.841 eV)
   159     159       --         2.399 au  fA            1.00    159 A               1
                        (      65.284 eV)
   160     160       --         2.423 au  fA            1.00    160 A               1
                        (      65.946 eV)
   161     161       --         2.462 au  fA            1.00    161 A               1
                        (      66.997 eV)
   162     162       --         2.493 au  fA            1.00    162 A               1
                        (      67.831 eV)
   163     163       --         2.506 au  fA            1.00    163 A               1
                        (      68.184 eV)
   164     164       --         2.554 au  fA            1.00    164 A               1
                        (      69.511 eV)
   165     165       --         2.567 au  fA            1.00    165 A               1
                        (      69.845 eV)
   166     166       --         2.623 au  fA            1.00    166 A               1
                        (      71.381 eV)
   167     167       --         2.629 au  fA            1.00    167 A               1
                        (      71.545 eV)
   168     168       --         2.711 au  fA            1.00    168 A               1
                        (      73.761 eV)
   169     169       --         2.736 au  fA            1.00    169 A               1
                        (      74.455 eV)
   170     170       --         2.768 au  fA            1.00    170 A               1
                        (      75.312 eV)
   171     171       --         2.783 au  fA            1.00    171 A               1
                        (      75.723 eV)
   172     172       --         2.798 au  fA            1.00    172 A               1
                        (      76.126 eV)
   173     173       --         2.826 au  fA            1.00    173 A               1
                        (      76.892 eV)
   174     174       --         2.832 au  fA            1.00    174 A               1
                        (      77.057 eV)
   175     175       --         2.852 au  fA            1.00    175 A               1
                        (      77.609 eV)
   176     176       --         2.889 au  fA            1.00    176 A               1
                        (      78.618 eV)
   177     177       --         2.915 au  fA            1.00    177 A               1
                        (      79.323 eV)
   178     178       --         2.924 au  fA            1.00    178 A               1
                        (      79.575 eV)
   179     179       --         2.954 au  fA            1.00    179 A               1
                        (      80.373 eV)
   180     180       --         2.957 au  fA            1.00    180 A               1
                        (      80.468 eV)
   181     181       --         3.015 au  fA            1.00    181 A               1
                        (      82.044 eV)
   182     182       --         3.041 au  fA            1.00    182 A               1
                        (      82.755 eV)
   183     183       --         3.068 au  fA            1.00    183 A               1
                        (      83.483 eV)
   184     184       --         3.078 au  fA            1.00    184 A               1
                        (      83.762 eV)
   185     185       --         3.112 au  fA            1.00    185 A               1
                        (      84.668 eV)
   186     186       --         3.164 au  fA            1.00    186 A               1
                        (      86.097 eV)
   187     187       --         3.176 au  fA            1.00    187 A               1
                        (      86.436 eV)
   188     188       --         3.216 au  fA            1.00    188 A               1
                        (      87.512 eV)
   189     189       --         3.232 au  fA            1.00    189 A               1
                        (      87.935 eV)
   190     190       --         3.298 au  fA            1.00    190 A               1
                        (      89.752 eV)
   191     191       --         3.307 au  fA            1.00    191 A               1
                        (      89.980 eV)
   192     192       --         3.333 au  fA            1.00    192 A               1
                        (      90.688 eV)
   193     193       --         3.362 au  fA            1.00    193 A               1
                        (      91.479 eV)
   194     194       --         3.370 au  fA            1.00    194 A               1
                        (      91.712 eV)
   195     195       --         3.403 au  fA            1.00    195 A               1
                        (      92.602 eV)
   196     196       --         3.416 au  fA            1.00    196 A               1
                        (      92.963 eV)
   197     197       --         3.427 au  fA            1.00    197 A               1
                        (      93.252 eV)
   198     198       --         3.454 au  fA            1.00    198 A               1
                        (      93.978 eV)
   199     199       --         3.463 au  fA            1.00    199 A               1
                        (      94.225 eV)
   200     200       --         3.490 au  fA            1.00    200 A               1
                        (      94.956 eV)
   201     201       --         3.514 au  fA            1.00    201 A               1
                        (      95.617 eV)
   202     202       --         3.528 au  fA            1.00    202 A               1
                        (      96.010 eV)
   203     203       --         3.542 au  fA            1.00    203 A               1
                        (      96.380 eV)
   204     204       --         3.578 au  fA            1.00    204 A               1
                        (      97.366 eV)
   205     205       --         3.606 au  fA            1.00    205 A               1
                        (      98.128 eV)
   206     206       --         3.639 au  fA            1.00    206 A               1
                        (      99.029 eV)
   207     207       --         3.690 au  fA            1.00    207 A               1
                        (     100.403 eV)
   208     208       --         3.745 au  fA            1.00    208 A               1
                        (     101.920 eV)
   209     209       --         3.761 au  fA            1.00    209 A               1
                        (     102.335 eV)
   210     210       --         3.778 au  fA            1.00    210 A               1
                        (     102.792 eV)
   211     211       --         3.808 au  fA            1.00    211 A               1
                        (     103.619 eV)
   212     212       --         3.819 au  fA            1.00    212 A               1
                        (     103.916 eV)
   213     213       --         3.836 au  fA            1.00    213 A               1
                        (     104.389 eV)
   214     214       --         3.856 au  fA            1.00    214 A               1
                        (     104.938 eV)
   215     215       --         3.878 au  fA            1.00    215 A               1
                        (     105.523 eV)
   216     216       --         3.896 au  fA            1.00    216 A               1
                        (     106.023 eV)
   217     217       --         3.910 au  fA            1.00    217 A               1
                        (     106.406 eV)
   218     218       --         3.942 au  fA            1.00    218 A               1
                        (     107.273 eV)
   219     219       --         3.972 au  fA            1.00    219 A               1
                        (     108.081 eV)
   220     220       --         4.008 au  fA            1.00    220 A               1
                        (     109.054 eV)
   221     221       --         4.079 au  fA            1.00    221 A               1
                        (     110.996 eV)
   222     222       --         4.112 au  fA            1.00    222 A               1
                        (     111.897 eV)
   223     223       --         4.135 au  fA            1.00    223 A               1
                        (     112.531 eV)
   224     224       --         4.176 au  fA            1.00    224 A               1
                        (     113.630 eV)
   225     225       --         4.242 au  fA            1.00    225 A               1
                        (     115.418 eV)
   226     226       --         4.274 au  fA            1.00    226 A               1
                        (     116.294 eV)
   227     227       --         4.320 au  fA            1.00    227 A               1
                        (     117.565 eV)
   228     228       --         4.337 au  fA            1.00    228 A               1
                        (     118.020 eV)
   229     229       --         4.367 au  fA            1.00    229 A               1
                        (     118.820 eV)
   230     230       --         4.391 au  fA            1.00    230 A               1
                        (     119.481 eV)
   231     231       --         4.413 au  fA            1.00    231 A               1
                        (     120.071 eV)
   232     232       --         4.424 au  fA            1.00    232 A               1
                        (     120.385 eV)
   233     233       --         4.459 au  fA            1.00    233 A               1
                        (     121.345 eV)
   234     234       --         4.515 au  fA            1.00    234 A               1
                        (     122.869 eV)
   235     235       --         4.518 au  fA            1.00    235 A               1
                        (     122.949 eV)
   236     236       --         4.565 au  fA            1.00    236 A               1
                        (     124.216 eV)
   237     237       --         4.592 au  fA            1.00    237 A               1
                        (     124.953 eV)
   238     238       --         4.629 au  fA            1.00    238 A               1
                        (     125.948 eV)
   239     239       --         4.667 au  fA            1.00    239 A               1
                        (     126.989 eV)
   240     240       --         4.697 au  fA            1.00    240 A               1
                        (     127.805 eV)
   241     241       --         4.720 au  fA            1.00    241 A               1
                        (     128.435 eV)
   242     242       --         4.744 au  fA            1.00    242 A               1
                        (     129.103 eV)
   243     243       --         4.784 au  fA            1.00    243 A               1
                        (     130.172 eV)
   244     244       --         4.825 au  fA            1.00    244 A               1
                        (     131.296 eV)
   245     245       --         4.873 au  fA            1.00    245 A               1
                        (     132.605 eV)
   246     246       --         4.936 au  fA            1.00    246 A               1
                        (     134.303 eV)
   247     247       --         4.961 au  fA            1.00    247 A               1
                        (     134.996 eV)
   248     248       --         5.006 au  fA            1.00    248 A               1
                        (     136.222 eV)
   249     249       --         5.032 au  fA            1.00    249 A               1
                        (     136.937 eV)
   250     250       --         5.057 au  fA            1.00    250 A               1
                        (     137.606 eV)
   251     251       --         5.109 au  fA            1.00    251 A               1
                        (     139.031 eV)
   252     252       --         5.186 au  fA            1.00    252 A               1
                        (     141.119 eV)
   253     253       --         5.211 au  fA            1.00    253 A               1
                        (     141.801 eV)
   254     254       --         5.378 au  fA            1.00    254 A               1
                        (     146.331 eV)
   255     255       --         5.399 au  fA            1.00    255 A               1
                        (     146.924 eV)
   256     256       --         5.449 au  fA            1.00    256 A               1
                        (     148.275 eV)
   257     257       --         5.505 au  fA            1.00    257 A               1
                        (     149.804 eV)
   258     258       --         5.530 au  fA            1.00    258 A               1
                        (     150.480 eV)
   259     259       --         5.597 au  fA            1.00    259 A               1
                        (     152.305 eV)
   260     260       --         5.652 au  fA            1.00    260 A               1
                        (     153.794 eV)
   261     261       --         5.668 au  fA            1.00    261 A               1
                        (     154.238 eV)
   262     262       --         5.726 au  fA            1.00    262 A               1
                        (     155.821 eV)
   263     263       --         5.813 au  fA            1.00    263 A               1
                        (     158.193 eV)
   264     264       --         5.908 au  fA            1.00    264 A               1
                        (     160.773 eV)
   265     265       --         5.999 au  fA            1.00    265 A               1
                        (     163.249 eV)
   266     266       --         6.060 au  fA            1.00    266 A               1
                        (     164.909 eV)
   267     267       --         6.105 au  fA            1.00    267 A               1
                        (     166.115 eV)
   268     268       --         6.185 au  fA            1.00    268 A               1
                        (     168.304 eV)
   269     269       --         6.245 au  fA            1.00    269 A               1
                        (     169.928 eV)
   270     270       --         6.319 au  fA            1.00    270 A               1
                        (     171.942 eV)
   271     271       --         6.336 au  fA            1.00    271 A               1
                        (     172.403 eV)
   272     272       --         6.373 au  fA            1.00    272 A               1
                        (     173.421 eV)
   273     273       --         6.404 au  fA            1.00    273 A               1
                        (     174.258 eV)
   274     274       --         6.483 au  fA            1.00    274 A               1
                        (     176.417 eV)
   275     275       --         6.502 au  fA            1.00    275 A               1
                        (     176.930 eV)
   276     276       --         6.551 au  fA            1.00    276 A               1
                        (     178.260 eV)
   277     277       --         6.571 au  fA            1.00    277 A               1
                        (     178.794 eV)
   278     278       --         6.609 au  fA            1.00    278 A               1
                        (     179.853 eV)
   279     279       --         6.641 au  fA            1.00    279 A               1
                        (     180.716 eV)
   280     280       --         6.695 au  fA            1.00    280 A               1
                        (     182.193 eV)
   281     281       --         6.927 au  fA            1.00    281 A               1
                        (     188.491 eV)
   282     282       --         7.053 au  fA            1.00    282 A               1
                        (     191.925 eV)
   283     283       --         7.192 au  fA            1.00    283 A               1
                        (     195.715 eV)
   284     284       --         7.238 au  fA            1.00    284 A               1
                        (     196.948 eV)
   285     285       --         7.280 au  fA            1.00    285 A               1
                        (     198.087 eV)
   286     286       --         7.330 au  fA            1.00    286 A               1
                        (     199.459 eV)
   287     287       --         7.421 au  fA            1.00    287 A               1
                        (     201.942 eV)
   288     288       --         7.501 au  fA            1.00    288 A               1
                        (     204.121 eV)
   289     289       --         7.515 au  fA            1.00    289 A               1
                        (     204.502 eV)
   290     290       --         7.581 au  fA            1.00    290 A               1
                        (     206.286 eV)
   291     291       --         7.657 au  fA            1.00    291 A               1
                        (     208.361 eV)
   292     292       --         7.694 au  fA            1.00    292 A               1
                        (     209.372 eV)
   293     293       --         7.829 au  fA            1.00    293 A               1
                        (     213.044 eV)
   294     294       --         8.109 au  fA            1.00    294 A               1
                        (     220.650 eV)
   295     295       --         8.550 au  fA            1.00    295 A               1
                        (     232.650 eV)
   296     296       --         8.945 au  fA            1.00    296 A               1
                        (     243.397 eV)
   297     297       --         9.169 au  fA            1.00    297 A               1
                        (     249.514 eV)
   298     298       --         9.356 au  fA            1.00    298 A               1
                        (     254.587 eV)
   299     299       --         9.796 au  fA            1.00    299 A               1
                        (     266.557 eV)
   300     300       --        11.409 au  fA            1.00    300 A               1
                        (     310.444 eV)
   301     301       --        15.636 au  fA            1.00    301 A               1
                        (     425.469 eV)
   302     302       --        16.609 au  fA            1.00    302 A               1
                        (     451.951 eV)
   303     303       --        54.044 au  fA            1.00    303 A               1
                        (    1470.616 eV)
   304     304       --        54.759 au  fA            1.00    304 A               1
                        (    1490.078 eV)
   305     305       --        56.337 au  fA            1.00    305 A               1
                        (    1532.995 eV)
   306     306       --        57.482 au  fA            1.00    306 A               1
                        (    1564.152 eV)
   307     307       --        58.214 au  fA            1.00    307 A               1
                        (    1584.077 eV)
   308     308       --        58.896 au  fA            1.00    308 A               1
                        (    1602.632 eV)
   309     309       --        69.666 au  fA            1.00    309 A               1
                        (    1895.715 eV)
   310     310       --       127.773 au  fA            1.00    310 A               1
                        (    3476.867 eV)
   311     311       --       130.716 au  fA            1.00    311 A               1
                        (    3556.955 eV)
   312     312      2.000     -24.336 au  fB            1.00      1 A               2
                        (    -662.211 eV)
   313     313      2.000     -18.801 au  fB            1.00      2 A               2
                        (    -511.606 eV)
   314     314      2.000     -10.007 au  fB            1.00      3 A               2
                        (    -272.297 eV)
   315     315      2.000      -9.996 au  fB            1.00      4 A               2
                        (    -272.004 eV)
   316     316      2.000      -9.995 au  fB            1.00      5 A               2
                        (    -271.969 eV)
   317     317      2.000      -9.939 au  fB            1.00      6 A               2
                        (    -270.451 eV)
   318     318      2.000      -9.938 au  fB            1.00      7 A               2
                        (    -270.436 eV)
   319     319      2.000      -9.925 au  fB            1.00      8 A               2
                        (    -270.086 eV)
   320     320      2.000      -1.140 au  fB            1.00      9 A               2
                        (     -31.023 eV)
   321     321      2.000      -0.974 au  fB            1.00     10 A               2
                        (     -26.496 eV)
   322     322      2.000      -0.741 au  fB            1.00     11 A               2
                        (     -20.162 eV)
   323     323      2.000      -0.696 au  fB            1.00     12 A               2
                        (     -18.950 eV)
   324     324      2.000      -0.675 au  fB            1.00     13 A               2
                        (     -18.361 eV)
   325     325      2.000      -0.544 au  fB            1.00     14 A               2
                        (     -14.810 eV)
   326     326      2.000      -0.539 au  fB            1.00     15 A               2
                        (     -14.657 eV)
   327     327      2.000      -0.507 au  fB            1.00     16 A               2
                        (     -13.792 eV)
   328     328      2.000      -0.496 au  fB            1.00     17 A               2
                        (     -13.504 eV)
   329     329      2.000      -0.460 au  fB            1.00     18 A               2
                        (     -12.528 eV)
   330     330      2.000      -0.423 au  fB            1.00     19 A               2
                        (     -11.517 eV)
   331     331      2.000      -0.419 au  fB            1.00     20 A               2
                        (     -11.409 eV)
   332     332      2.000      -0.394 au  fB            1.00     21 A               2
                        (     -10.715 eV)
   333     333      2.000      -0.368 au  fB            1.00     22 A               2
                        (     -10.006 eV)
   334     334      2.000      -0.359 au  fB            1.00     23 A               2
                        (      -9.775 eV)
   335     335      2.000      -0.351 au  fB            1.00     24 A               2
                        (      -9.548 eV)
   336     336      2.000      -0.331 au  fB            1.00     25 A               2
                        (      -9.000 eV)
   337     337      2.000      -0.320 au  fB            1.00     26 A               2
                        (      -8.707 eV)
   338     338      2.000      -0.243 au  fB            1.00     27 A               2
                        (      -6.620 eV)
   339     339      2.000      -0.237 au  fB            1.00     28 A               2
                        (      -6.446 eV)
   340     340      2.000      -0.194 au  fB            1.00     29 A               2
                        (      -5.282 eV)
   341     341       --        -0.071 au  fB            1.00     30 A               2
                        (      -1.936 eV)
   342     342       --        -0.017 au  fB            1.00     31 A               2
                        (      -0.474 eV)
   343     343       --        -0.001 au  fB            1.00     32 A               2
                        (      -0.030 eV)
   344     344       --         0.009 au  fB            1.00     33 A               2
                        (       0.241 eV)
   345     345       --         0.021 au  fB            1.00     34 A               2
                        (       0.578 eV)
   346     346       --         0.031 au  fB            1.00     35 A               2
                        (       0.851 eV)
   347     347       --         0.042 au  fB            1.00     36 A               2
                        (       1.156 eV)
   348     348       --         0.054 au  fB            1.00     37 A               2
                        (       1.463 eV)
   349     349       --         0.064 au  fB            1.00     38 A               2
                        (       1.734 eV)
   350     350       --         0.110 au  fB            1.00     39 A               2
                        (       2.983 eV)
   351     351       --         0.116 au  fB            1.00     40 A               2
                        (       3.143 eV)
   352     352       --         0.126 au  fB            1.00     41 A               2
                        (       3.425 eV)
   353     353       --         0.141 au  fB            1.00     42 A               2
                        (       3.833 eV)
   354     354       --         0.158 au  fB            1.00     43 A               2
                        (       4.302 eV)
   355     355       --         0.174 au  fB            1.00     44 A               2
                        (       4.738 eV)
   356     356       --         0.182 au  fB            1.00     45 A               2
                        (       4.943 eV)
   357     357       --         0.206 au  fB            1.00     46 A               2
                        (       5.600 eV)
   358     358       --         0.210 au  fB            1.00     47 A               2
                        (       5.710 eV)
   359     359       --         0.216 au  fB            1.00     48 A               2
                        (       5.882 eV)
   360     360       --         0.235 au  fB            1.00     49 A               2
                        (       6.408 eV)
   361     361       --         0.248 au  fB            1.00     50 A               2
                        (       6.736 eV)
   362     362       --         0.253 au  fB            1.00     51 A               2
                        (       6.882 eV)
   363     363       --         0.293 au  fB            1.00     52 A               2
                        (       7.985 eV)
   364     364       --         0.294 au  fB            1.00     53 A               2
                        (       7.996 eV)
   365     365       --         0.309 au  fB            1.00     54 A               2
                        (       8.413 eV)
   366     366       --         0.316 au  fB            1.00     55 A               2
                        (       8.600 eV)
   367     367       --         0.323 au  fB            1.00     56 A               2
                        (       8.779 eV)
   368     368       --         0.338 au  fB            1.00     57 A               2
                        (       9.210 eV)
   369     369       --         0.359 au  fB            1.00     58 A               2
                        (       9.782 eV)
   370     370       --         0.379 au  fB            1.00     59 A               2
                        (      10.312 eV)
   371     371       --         0.387 au  fB            1.00     60 A               2
                        (      10.521 eV)
   372     372       --         0.392 au  fB            1.00     61 A               2
                        (      10.655 eV)
   373     373       --         0.448 au  fB            1.00     62 A               2
                        (      12.179 eV)
   374     374       --         0.471 au  fB            1.00     63 A               2
                        (      12.806 eV)
   375     375       --         0.486 au  fB            1.00     64 A               2
                        (      13.223 eV)
   376     376       --         0.542 au  fB            1.00     65 A               2
                        (      14.762 eV)
   377     377       --         0.548 au  fB            1.00     66 A               2
                        (      14.904 eV)
   378     378       --         0.567 au  fB            1.00     67 A               2
                        (      15.424 eV)
   379     379       --         0.587 au  fB            1.00     68 A               2
                        (      15.979 eV)
   380     380       --         0.621 au  fB            1.00     69 A               2
                        (      16.900 eV)
   381     381       --         0.641 au  fB            1.00     70 A               2
                        (      17.450 eV)
   382     382       --         0.653 au  fB            1.00     71 A               2
                        (      17.773 eV)
   383     383       --         0.664 au  fB            1.00     72 A               2
                        (      18.062 eV)
   384     384       --         0.685 au  fB            1.00     73 A               2
                        (      18.643 eV)
   385     385       --         0.713 au  fB            1.00     74 A               2
                        (      19.410 eV)
   386     386       --         0.735 au  fB            1.00     75 A               2
                        (      20.005 eV)
   387     387       --         0.754 au  fB            1.00     76 A               2
                        (      20.524 eV)
   388     388       --         0.781 au  fB            1.00     77 A               2
                        (      21.252 eV)
   389     389       --         0.784 au  fB            1.00     78 A               2
                        (      21.322 eV)
   390     390       --         0.801 au  fB            1.00     79 A               2
                        (      21.800 eV)
   391     391       --         0.900 au  fB            1.00     80 A               2
                        (      24.499 eV)
   392     392       --         0.912 au  fB            1.00     81 A               2
                        (      24.830 eV)
   393     393       --         0.938 au  fB            1.00     82 A               2
                        (      25.516 eV)
   394     394       --         0.949 au  fB            1.00     83 A               2
                        (      25.829 eV)
   395     395       --         0.980 au  fB            1.00     84 A               2
                        (      26.681 eV)
   396     396       --         1.000 au  fB            1.00     85 A               2
                        (      27.213 eV)
   397     397       --         1.029 au  fB            1.00     86 A               2
                        (      28.003 eV)
   398     398       --         1.051 au  fB            1.00     87 A               2
                        (      28.600 eV)
   399     399       --         1.060 au  fB            1.00     88 A               2
                        (      28.855 eV)
   400     400       --         1.097 au  fB            1.00     89 A               2
                        (      29.861 eV)
   401     401       --         1.103 au  fB            1.00     90 A               2
                        (      30.003 eV)
   402     402       --         1.139 au  fB            1.00     91 A               2
                        (      30.992 eV)
   403     403       --         1.175 au  fB            1.00     92 A               2
                        (      31.971 eV)
   404     404       --         1.192 au  fB            1.00     93 A               2
                        (      32.439 eV)
   405     405       --         1.201 au  fB            1.00     94 A               2
                        (      32.683 eV)
   406     406       --         1.221 au  fB            1.00     95 A               2
                        (      33.225 eV)
   407     407       --         1.258 au  fB            1.00     96 A               2
                        (      34.241 eV)
   408     408       --         1.287 au  fB            1.00     97 A               2
                        (      35.021 eV)
   409     409       --         1.296 au  fB            1.00     98 A               2
                        (      35.265 eV)
   410     410       --         1.321 au  fB            1.00     99 A               2
                        (      35.959 eV)
   411     411       --         1.370 au  fB            1.00    100 A               2
                        (      37.284 eV)
   412     412       --         1.376 au  fB            1.00    101 A               2
                        (      37.456 eV)
   413     413       --         1.395 au  fB            1.00    102 A               2
                        (      37.968 eV)
   414     414       --         1.444 au  fB            1.00    103 A               2
                        (      39.306 eV)
   415     415       --         1.492 au  fB            1.00    104 A               2
                        (      40.611 eV)
   416     416       --         1.515 au  fB            1.00    105 A               2
                        (      41.213 eV)
   417     417       --         1.525 au  fB            1.00    106 A               2
                        (      41.495 eV)
   418     418       --         1.530 au  fB            1.00    107 A               2
                        (      41.629 eV)
   419     419       --         1.558 au  fB            1.00    108 A               2
                        (      42.403 eV)
   420     420       --         1.576 au  fB            1.00    109 A               2
                        (      42.894 eV)
   421     421       --         1.604 au  fB            1.00    110 A               2
                        (      43.656 eV)
   422     422       --         1.640 au  fB            1.00    111 A               2
                        (      44.636 eV)
   423     423       --         1.676 au  fB            1.00    112 A               2
                        (      45.618 eV)
   424     424       --         1.692 au  fB            1.00    113 A               2
                        (      46.042 eV)
   425     425       --         1.740 au  fB            1.00    114 A               2
                        (      47.357 eV)
   426     426       --         1.779 au  fB            1.00    115 A               2
                        (      48.409 eV)
   427     427       --         1.792 au  fB            1.00    116 A               2
                        (      48.764 eV)
   428     428       --         1.857 au  fB            1.00    117 A               2
                        (      50.535 eV)
   429     429       --         1.887 au  fB            1.00    118 A               2
                        (      51.360 eV)
   430     430       --         1.915 au  fB            1.00    119 A               2
                        (      52.120 eV)
   431     431       --         1.951 au  fB            1.00    120 A               2
                        (      53.101 eV)
[...]
                                    7.82%    26 A              -8.707  2.00     2 fB
                                    5.32%    16 A             -13.792  2.00     2 fB
                                    5.26%    31 A              -0.474  0.00     2 fB
                                    4.59%    28 A              -9.145  2.00     1 fA
                                    4.54%    42 A               3.833  0.00     2 fB
                                    4.22%    51 A               6.882  0.00     2 fB
                                    3.25%    40 A               3.143  0.00     2 fB
                                    2.73%    30 A              -1.936  0.00     2 fB
                                    2.66%    39 A               0.271  0.00     1 fA
                                    2.08%    37 A              -0.828  0.00     1 fA
                                    2.01%    47 A               2.740  0.00     1 fA
                                    2.00%    33 A              -5.649  2.00     1 fA
                                    1.96%    31 A              -8.694  2.00     1 fA
                                    1.83%    35 A              -1.398  0.00     1 fA
                                    1.75%    24 A              -9.548  2.00     2 fB
                                    1.69%    19 A             -13.147  2.00     1 fA
                                    1.66%    44 A               4.738  0.00     2 fB
                                    1.64%    32 A              -0.030  0.00     2 fB
                                    1.56%    24 A             -10.818  2.00     1 fA
                                    1.52%    53 A               7.996  0.00     2 fB
                                    1.47%    23 A             -11.114  2.00     1 fA
                                    1.43%    33 A               0.241  0.00     2 fB
                                    1.31%    37 A               1.463  0.00     2 fB
                                    1.27%    15 A             -14.657  2.00     2 fB
                                    1.27%    39 A               2.983  0.00     2 fB
                                    1.11%    34 A               0.578  0.00     2 fB
                                    1.10%    49 A               3.387  0.00     1 fA
                                    1.03%    55 A               5.383  0.00     1 fA
                                    1.02%    52 A               7.985  0.00     2 fB
 Mulliken charges used for AMS results%charges...


    =====================
     CALCULATION RESULTS
    =====================

Energy (hartree)            -0.02011755


--------------
Atomic charges
--------------
  Index   Atom    Charge
      1      C    0.5989
      2      C    0.4244
      3      O   -0.5277
      4      C    0.4159
      5      O   -0.4239
      6      C    0.2817
      7      C    0.6700
      8      C    0.0915
      9      N   -0.2611
     10      H   -0.1752
     11      H   -0.1959
     12      H   -0.2164
     13      H   -0.1439
     14      H   -0.1726
     15      H   -0.1958
     16      H   -0.1980
     17      C    0.2195
     18      C    0.5015
     19      C    0.1587
     20      C    0.4364
     21      F   -0.4068
     22      C    0.4720
     23      O   -0.5311
     24      C    0.1666
     25      H   -0.2131
     26      H   -0.2111
     27      H   -0.1810
     28      H   -0.2095
     29      H   -0.1739


Dipole moment vector    (Debye):     1.20234098   -3.41843819    0.20988060
              magnitude (Debye):     3.62979247


-----------------------
Molecular orbitals info
-----------------------
n orbitals:              574
n spin:                    1

Note: only printing virtual orbitals with
      energy smaller than HOMO + 100. eV

HOMO (eV):              -5.6463
LUMO (eV):              -3.7941
HOMO-LUMO gap (eV):      1.8522

   Index   Energy (eV)    Occupation
     360       94.0752         0.000       
     359       93.9747         0.000       
     358       93.4511         0.000       
     357       93.2812         0.000       
     356       93.0252         0.000       
     355       92.8968         0.000       
     354       92.5792         0.000       
     353       92.2727         0.000       
     352       91.7948         0.000       
     351       91.7155         0.000       
     350       91.1750         0.000       
     349       91.0698         0.000       
     348       90.6633         0.000       
     347       90.4048         0.000       
     346       90.2769         0.000       
     345       89.3059         0.000       
     344       88.7929         0.000       
     343       88.5978         0.000       
     342       88.3896         0.000       
     341       87.8803         0.000       
     340       87.2982         0.000       
     339       86.8747         0.000       
     338       86.4795         0.000       
     337       86.1896         0.000       
     336       85.5846         0.000       
     335       85.2314         0.000       
     334       84.8857         0.000       
     333       84.3649         0.000       
     332       83.5387         0.000       
     331       83.3691         0.000       
     330       83.0825         0.000       
     329       82.8322         0.000       
     328       82.2724         0.000       
     327       81.7883         0.000       
     326       81.2227         0.000       
     325       80.7894         0.000       
     324       80.5049         0.000       
     323       80.1351         0.000       
     322       79.4916         0.000       
     321       79.0077         0.000       
     320       78.4623         0.000       
     319       78.2799         0.000       
     318       77.9244         0.000       
     317       77.5509         0.000       
     316       76.8753         0.000       
     315       76.5960         0.000       
     314       76.4533         0.000       
     313       76.0896         0.000       
     312       75.8058         0.000       
     311       75.7197         0.000       
     310       75.1931         0.000       
     309       75.0723         0.000       
     308       74.7442         0.000       
     307       74.4179         0.000       
     306       74.0382         0.000       
     305       73.3917         0.000       
     304       73.2727         0.000       
     303       72.5749         0.000       
     302       71.8335         0.000       
     301       71.0297         0.000       
     300       70.6657         0.000       
     299       70.3122         0.000       
     298       69.8398         0.000       
     297       69.6455         0.000       
     296       68.5811         0.000       
     295       68.3862         0.000       
     294       67.9586         0.000       
     293       67.2574         0.000       
     292       67.1754         0.000       
     291       66.8845         0.000       
     290       65.7393         0.000       
     289       65.3260         0.000       
     288       64.8990         0.000       
     287       64.1796         0.000       
     286       64.0116         0.000       
     285       63.2150         0.000       
     284       62.8923         0.000       
     283       62.2859         0.000       
     282       62.1801         0.000       
     281       61.5758         0.000       
     280       60.9676         0.000       
     279       60.9112         0.000       
     278       60.7265         0.000       
     277       60.1791         0.000       
     276       59.7362         0.000       
     275       59.5302         0.000       
     274       59.2575         0.000       
     273       59.0137         0.000       
     272       58.6716         0.000       
     271       58.1403         0.000       
     270       57.8198         0.000       
     269       57.3707         0.000       
     268       57.0712         0.000       
     267       56.4602         0.000       
     266       56.4033         0.000       
     265       55.4774         0.000       
     264       55.2275         0.000       
     263       54.8531         0.000       
     262       54.1698         0.000       
     261       53.7730         0.000       
     260       53.5940         0.000       
     259       53.2647         0.000       
     258       52.8977         0.000       
     257       52.8133         0.000       
     256       52.4959         0.000       
     255       52.0021         0.000       
     254       51.0693         0.000       
     253       50.9245         0.000       
     252       49.9578         0.000       
     251       49.7932         0.000       
     250       49.1620         0.000       
     249       49.0844         0.000       
     248       48.9223         0.000       
     247       48.2956         0.000       
     246       48.0291         0.000       
     245       47.5652         0.000       
     244       47.3824         0.000       
     243       46.5064         0.000       
     242       46.2749         0.000       
     241       46.0217         0.000       
     240       45.6019         0.000       
     239       45.3262         0.000       
     238       45.1406         0.000       
     237       44.8687         0.000       
     236       44.5101         0.000       
     235       44.3741         0.000       
     234       44.3068         0.000       
     233       43.7370         0.000       
     232       43.5408         0.000       
     231       43.1082         0.000       
     230       42.8157         0.000       
     229       42.7037         0.000       
     228       42.3226         0.000       
     227       41.7341         0.000       
     226       41.5389         0.000       
     225       40.7453         0.000       
     224       40.3835         0.000       
     223       40.0200         0.000       
     222       39.8764         0.000       
     221       39.6009         0.000       
     220       39.0997         0.000       
     219       38.6993         0.000       
     218       38.2106         0.000       
     217       37.8685         0.000       
     216       37.6780         0.000       
     215       37.5343         0.000       
     214       37.0391         0.000       
     213       36.4440         0.000       
     212       36.3262         0.000       
     211       36.0090         0.000       
     210       35.4660         0.000       
     209       35.1455         0.000       
     208       34.9803         0.000       
     207       34.4068         0.000       
     206       34.2881         0.000       
     205       33.9963         0.000       
     204       33.8159         0.000       
     203       33.4833         0.000       
     202       33.1077         0.000       
     201       33.0147         0.000       
     200       32.7146         0.000       
     199       32.2762         0.000       
     198       32.1344         0.000       
     197       32.0307         0.000       
     196       31.4288         0.000       
     195       31.3501         0.000       
     194       31.1978         0.000       
     193       30.8723         0.000       
     192       30.6120         0.000       
     191       30.1983         0.000       
     190       29.8666         0.000       
     189       29.5988         0.000       
     188       29.4018         0.000       
     187       29.1923         0.000       
     186       28.9638         0.000       
     185       28.6150         0.000       
     184       28.2885         0.000       
     183       28.1432         0.000       
     182       27.8039         0.000       
     181       27.5403         0.000       
     180       27.0688         0.000       
     179       26.9151         0.000       
     178       26.6259         0.000       
     177       26.4859         0.000       
     176       26.2745         0.000       
     175       26.0259         0.000       
     174       25.5355         0.000       
     173       25.2013         0.000       
     172       24.8537         0.000       
     171       24.6943         0.000       
     170       24.2848         0.000       
     169       23.9194         0.000       
     168       23.7228         0.000       
     167       23.1543         0.000       
     166       22.3810         0.000       
     165       22.1661         0.000       
     164       21.9256         0.000       
     163       21.5698         0.000       
     162       21.2108         0.000       
     161       21.0509         0.000       
     160       20.7078         0.000       
     159       20.4743         0.000       
     158       20.2105         0.000       
     157       19.7796         0.000       
     156       19.5273         0.000       
     155       19.2739         0.000       
     154       18.7706         0.000       
     153       18.6905         0.000       
     152       18.3864         0.000       
     151       18.0762         0.000       
     150       17.8779         0.000       
     149       17.7626         0.000       
     148       17.2875         0.000       
     147       17.0755         0.000       
     146       16.4434         0.000       
     145       16.1771         0.000       
     144       15.9041         0.000       
     143       15.5677         0.000       
     142       15.3061         0.000       
     141       14.8939         0.000       
     140       14.5874         0.000       
     139       14.0990         0.000       
     138       14.0078         0.000       
     137       13.5812         0.000       
     136       13.3215         0.000       
     135       12.9669         0.000       
     134       12.9235         0.000       
     133       12.6474         0.000       
     132       12.6220         0.000       
     131       12.3161         0.000       
     130       12.2067         0.000       
     129       11.7683         0.000       
     128       11.6628         0.000       
     127       10.9137         0.000       
     126       10.8908         0.000       
     125       10.7941         0.000       
     124       10.5962         0.000       
     123       10.2811         0.000       
     122       10.1786         0.000       
     121       10.0540         0.000       
     120        9.6287         0.000       
     119        9.4478         0.000       
     118        9.1684         0.000       
     117        9.0507         0.000       
     116        8.9383         0.000       
     115        8.6107         0.000       
     114        8.5623         0.000       
     113        8.4116         0.000       
     112        8.2454         0.000       
     111        7.9054         0.000       
     110        7.7132         0.000       
     109        7.5646         0.000       
     108        7.3775         0.000       
     107        7.3201         0.000       
     106        7.1602         0.000       
     105        6.6552         0.000       
     104        6.6190         0.000       
     103        6.4243         0.000       
     102        6.3439         0.000       
     101        6.0046         0.000       
     100        5.7246         0.000       
      99        5.5923         0.000       
      98        5.4583         0.000       
      97        5.3850         0.000       
      96        5.0707         0.000       
      95        4.8572         0.000       
      94        4.7251         0.000       
      93        4.4220         0.000       
      92        4.2805         0.000       
      91        4.1326         0.000       
      90        4.0375         0.000       
      89        3.5992         0.000       
      88        3.4058         0.000       
      87        3.1820         0.000       
      86        3.1149         0.000       
      85        3.0174         0.000       
      84        2.5949         0.000       
      83        2.3093         0.000       
      82        2.2318         0.000       
      81        2.1150         0.000       
      80        1.9584         0.000       
      79        1.6374         0.000       
      78        1.3450         0.000       
      77        1.2215         0.000       
      76        1.1140         0.000       
      75        1.0157         0.000       
      74        0.8252         0.000       
      73        0.5421         0.000       
      72        0.3032         0.000       
      71        0.1468         0.000       
      70        0.0847         0.000       
      69       -0.1776         0.000       
      68       -0.6122         0.000       
      67       -0.7882         0.000       
      66       -1.1682         0.000       
      65       -1.2545         0.000       
      64       -2.0625         0.000       
      63       -3.7941         0.000 < LUMO
      62       -5.6463         2.000 < HOMO
      61       -5.8066         2.000       
      60       -6.1651         2.000       
      59       -6.7038         2.000       
      58       -6.9461         2.000       
      57       -8.7190         2.000       
      56       -8.7581         2.000       
      55       -8.9637         2.000       
      54       -9.0225         2.000       
      53       -9.1911         2.000       
      52       -9.2570         2.000       
      51       -9.3826         2.000       
      50       -9.8083         2.000       
      49       -9.9920         2.000       
      48      -10.2825         2.000       
      47      -10.3101         2.000       
      46      -10.4098         2.000       
      45      -10.8561         2.000       
      44      -10.9664         2.000       
      43      -11.0467         2.000       
      42      -11.3347         2.000       
      41      -11.6378         2.000       
      40      -11.7758         2.000       
      39      -11.9436         2.000       
      38      -12.6174         2.000       
      37      -12.7706         2.000       
      36      -13.2227         2.000       
      35      -13.5227         2.000       
      34      -13.7848         2.000       
      33      -14.1231         2.000       
      32      -14.9464         2.000       
      31      -15.1087         2.000       
      30      -15.6700         2.000       
      29      -16.8318         2.000       
      28      -18.5133         2.000       
      27      -18.6136         2.000       
      26      -19.2686         2.000       
      25      -19.5227         2.000       
      24      -20.5068         2.000       
      23      -21.0682         2.000       
      22      -22.9260         2.000       
      21      -26.0074         2.000       
      20      -26.7689         2.000       
      19      -29.3595         2.000       
      18      -31.3516         2.000       
      17     -270.3033         2.000       
      16     -270.6314         2.000       
      15     -270.8048         2.000       
      14     -270.8320         2.000       
      13     -271.2781         2.000       
      12     -271.4979         2.000       
      11     -272.1999         2.000       
      10     -272.2460         2.000       
       9     -272.4518         2.000       
       8     -272.5150         2.000       
       7     -272.7439         2.000       
       6     -273.5263         2.000       
       5     -382.0195         2.000       
       4     -511.3193         2.000       
       3     -511.9006         2.000       
       2     -514.8687         2.000       
       1     -662.5233         2.000       

AMS application finished. Exiting.
NORMAL TERMINATION
     Total cpu time:     226.05
  Total system time:       0.52
 Total elapsed time:     227.83
NORMAL TERMINATION
