srun: Job 662084 step creation temporarily disabled, retrying (Requested nodes are busy)
srun: Job 662084 step creation still disabled, retrying (Requested nodes are busy)
srun: Job 662084 step creation still disabled, retrying (Requested nodes are busy)
srun: Job 662084 step creation still disabled, retrying (Requested nodes are busy)
srun: Job 662084 step creation still disabled, retrying (Requested nodes are busy)
srun: Job 662084 step creation still disabled, retrying (Requested nodes are busy)
srun: Job 662084 step creation still disabled, retrying (Requested nodes are busy)
srun: Step created for StepId=662084.12

 *******************************************************************************
 *                                                                             *
 *  --------------------------------                                           *
 *   Amsterdam Modeling Suite (AMS)              2026.103                      *
 *  --------------------------------                                           *
 *                                               r260501 2026-05-01 873454b5   *
 *                                                                             *
 *                                                                             *
 *                              =================                              *
 *                              |               |                              *
 *                              |     A M S     |                              *
 *                              |               |                              *
 *                              =================                              *
 *                                                                             *
 *                                                                             *
 *   Online information and documentation:  https://www.scm.com/support/       *
 *   E-mail:  support@scm.com   info@scm.com                                   *
 *                                                                             *
 *   Scientific publications using AMS results must be properly referenced     *
 *   See the User Manuals (or the web site) for recommended citations          *
 *   The terms and conditions of the End User License Agreement apply to       *
 *   the use of AMS, https://www.scm.com/license-terms/                        *
 *                                                                             *
 **********************  x86_64_linux_intel / intelmpi  ************************
 
 Licensed to: Jong-June Jeon / University of Seoul 2026-06-02 13:44:15
 SCM User ID: u30731
  
 AMS 2026.103  RunTime: Jun02-2026 23:17:07  ShM Nodes: 1  Procs: 1

 AMS jobname: c4_fragA_opt
 AMS jobid  : 1836906379

 Start   directory: /gpfs/home1/yeseo1ee/projects/eda-asm-prediction/ADF_800/adf_outputs/batch_000/dipolar_000611/
 Results directory: /gpfs/home1/yeseo1ee/projects/eda-asm-prediction/ADF_800/adf_outputs/batch_000/dipolar_000611/c4_fragA_opt.results/
 Scratch directory: /tmp/amstmp_c4_fragA_opt_kid0.1836906379/

 RNG seed: -999019601 -1964466634 -913541964 -1030654731 41397476 -496469186 785336037 859707050



                      ************************************************************************
                      *  ADF 2026.103  RunTime: Jun02-2026 23:17:07  ShM Nodes: 1  Procs: 1  *
                      ************************************************************************
  

       ***************************
       *  GEOMETRY OPTIMIZATION  *
       ***************************

Optimization Method                    Quasi Newton
Optimization Coordinates               Delocalized Coordinates
Optimize lattice                       F
 
 ------------------------------------------------------
 Convergence criteria (Hartree,Angstrom)
 ------------------------------------------------------
 Maximum gradient               0.000100000000
 Maximum rms gradient           0.000066666667
 Maximum step allowed           0.010000000000
 Maximum rms step allowed       0.006666666667
 Maximum energy change allowe   0.000150000000
 Maximum stress energy allowe   0.000500000000
 
Initial model Hessian                  Automatic Hessian
 
------------------------------------
Quasi-Newton Optimizer Parameters
------------------------------------
Hessian Update Method                  BFGS
Maximum number of steps                  200
First GDIIS cycle                          0
Maximum GDIIS vectors                      0
Trust radius (bohr)                        0.200000
Trust radius varies                        T
Constraints converged at all steps         T
Use projector                              T
 
 Rigid motions settings for: old optimizer
 Atomic rotations (x,y,z):     T T T
 Atomic translations (x,y,z):  T T T
 Tolerance:                  1.000000000000000E-006

--------
Geometry
--------
Formula: C4H7NO3
Atoms
  Index Symbol   x (angstrom)   y (angstrom)   z (angstrom)
      1      C     5.17038000    -0.16867000    -0.58683000
      2      O     3.76658000    -0.33458000    -0.84471000
      3      C     2.96345000    -0.37584000     0.22190000
      4      O     3.36239000    -0.41080000     1.37334000
      5      C     1.53202000    -0.51870000    -0.12187000
      6      O     0.88553000    -0.04534000    -1.16028000
      7      N     0.91508000     1.17055000    -1.70282000
      8      C     2.14822000     1.89844000    -1.52733000
      9      H     5.65522000    -0.14710000    -1.56920000
     10      H     5.34949000     0.77515000    -0.05138000
     11      H     5.55318000    -1.00869000     0.00960000
     12      H     1.05418000    -1.41112000     0.28373000
     13      H     2.94790000     1.48477000    -2.16525000
     14      H     2.53344000     1.93184000    -0.49358000
     15      H     1.93766000     2.92504000    -1.85615000

Total System Charge              0.00000


----------------
ADF Engine Input
----------------
 
   Basis
     Type TZ2P
     Core None
   End
   XC
     GGA BLYP
     Dispersion GRIMME3 BJDAMP
   End
   Symmetry NOSYM
   NumericalQuality Normal
   Unrestricted No
   SCF
     Iterations 200
     Converge 1.0e-6
   End
   Save TAPE21
 

 Title: *** (NO TITLE) ***

 Using automatic Hessian for delocalized coordinates.
 *** GO1_GOStep1 ***

 Energy gradients wrt nuclear displacements
 ==========================================

     Atom      Cartesian (a.u./angstrom)
                 X         Y         Z
 ----------------------------------------
     1 C    -0.025378 -0.001638 -0.005689
     2 O    -0.006812 -0.000505  0.050934
     3 C     0.029990  0.000388 -0.028633
     4 O    -0.005949  0.002114 -0.023532
     5 C    -0.041549  0.047451 -0.004038
     6 O     0.041910 -0.015736 -0.032596
     7 N    -0.002536 -0.014311  0.058325
     8 C    -0.005041 -0.016073 -0.002253
     9 H     0.003503  0.000328 -0.003569
    10 H    -0.000217  0.004823  0.000543
    11 H     0.001437 -0.005153  0.001172
    12 H     0.003800 -0.007250 -0.001255
    13 H     0.000939 -0.000659 -0.004216
    14 H     0.003932  0.002084 -0.005051
    15 H     0.001971  0.004136 -0.000142
 ----------------------------------------
 Residual max backtransformation error   0.6044E-04
 
----------------------------------------------------------------------
Geometry Convergence after Step   1       (Hartree/Angstrom,Angstrom)
----------------------------------------------------------------------
current energy                               -3.03154389 Hartree
energy change                      -3.03154389     0.00015000    F
constrained gradient max            0.05825694     0.00010000    F
constrained gradient rms            0.01933816     0.00006667    F
gradient max                        0.05825694
gradient rms                        0.01933816
cart. step max                      0.20940418     0.01000000    F
cart. step rms                      0.07244515     0.00666667    F
 

--------
Geometry
--------
Formula: C4H7NO3
Atoms
  Index Symbol   x (angstrom)   y (angstrom)   z (angstrom)
      1      C     5.23658714    -0.25523787    -0.57264961
      2      O     3.82508876    -0.38917393    -0.84505154
      3      C     3.00765039    -0.39954402     0.23090484
      4      O     3.39969309    -0.43129715     1.39204236
      5      C     1.57384362    -0.51724565    -0.11961083
      6      O     0.91401395    -0.04408041    -1.16698374
      7      N     0.89726969     1.15214267    -1.78036324
      8      C     2.04761097     1.99408726    -1.54804311
      9      H     5.72886293    -0.25554784    -1.54982245
     10      H     5.43525816     0.68671137    -0.04383257
     11      H     5.59228591    -1.09665138     0.03538939
     12      H     1.07592460    -1.38953583     0.30197286
     13      H     2.93591017     1.61911514    -2.08232321
     14      H     2.32403582     2.11471491    -0.48516169
     15      H     1.78068481     2.97649272    -1.95729747

Total System Charge              0.00000

 *** GO1_GOStep2 ***

 Energy gradients wrt nuclear displacements
 ==========================================

     Atom      Cartesian (a.u./angstrom)
                 X         Y         Z
 ----------------------------------------
     1 C    -0.018878 -0.001003 -0.005385
     2 O     0.003793 -0.008944  0.031170
     3 C     0.016535 -0.005027 -0.028257
     4 O    -0.000608  0.001822  0.000177
     5 C    -0.031099  0.022796  0.009622
     6 O     0.031527 -0.010141 -0.027375
     7 N    -0.003471 -0.000105  0.031781
     8 C    -0.008742 -0.003445 -0.001593
     9 H     0.002922  0.000265 -0.001977
    10 H     0.000455  0.003507  0.000364
    11 H     0.001431 -0.003036  0.000676
    12 H     0.004105 -0.005629 -0.000591
    13 H    -0.001772 -0.000075 -0.002894
    14 H     0.002929  0.005707 -0.005950
    15 H     0.000873  0.003309  0.000232
 ----------------------------------------

 dE(predicted):    -0.84252E-02, dE(actual):    -0.45042E-02, Trust radius:    0.200000, all in a.u.
 
----------------------------------------------------------------------
Geometry Convergence after Step   2       (Hartree/Angstrom,Angstrom)
----------------------------------------------------------------------
current energy                               -3.03604809 Hartree
energy change                      -0.00450420     0.00015000    F
constrained gradient max            0.03173484     0.00010000    F
constrained gradient rms            0.01271671     0.00006667    F
gradient max                        0.03173484
gradient rms                        0.01271671
cart. step max                      0.15306029     0.01000000    F
cart. step rms                      0.05534689     0.00666667    F
 

--------
Geometry
--------
Formula: C4H7NO3
Atoms
  Index Symbol   x (angstrom)   y (angstrom)   z (angstrom)
      1      C     5.21680992    -0.20507496    -0.61366771
      2      O     3.79454738    -0.34507265    -0.88246654
      3      C     2.98677812    -0.38042930     0.22478402
      4      O     3.39541444    -0.40920347     1.38454714
      5      C     1.55113344    -0.50263193    -0.11346208
      6      O     0.88299368    -0.03069888    -1.17003435
      7      N     0.92726704     1.14142361    -1.84604833
      8      C     2.09803774     1.92303004    -1.51094161
      9      H     5.69770435    -0.18413274    -1.59375055
     10      H     5.41343369     0.72459510    -0.06748154
     11      H     5.58084670    -1.05293124    -0.02411311
     12      H     1.03123389    -1.34829224     0.33061418
     13      H     3.02022524     1.48911449    -1.92926292
     14      H     2.24759391     2.03727500    -0.41953140
     15      H     1.93070046     2.90797915    -1.96001519

Total System Charge              0.00000

 *** GO1_GOStep3 ***

 Energy gradients wrt nuclear displacements
 ==========================================

     Atom      Cartesian (a.u./angstrom)
                 X         Y         Z
 ----------------------------------------
     1 C    -0.008661  0.000237 -0.003348
     2 O     0.002871 -0.002841  0.004964
     3 C     0.007532 -0.005187 -0.022214
     4 O     0.001141  0.003328  0.016049
     5 C    -0.022472  0.008439  0.021461
     6 O     0.028597  0.001193 -0.022612
     7 N    -0.020684  0.009597  0.004430
     8 C    -0.000668 -0.012578  0.009102
     9 H     0.001510  0.000316  0.000070
    10 H     0.000967  0.000844 -0.000152
    11 H     0.001213 -0.000479 -0.000121
    12 H     0.003681 -0.005308 -0.002267
    13 H     0.001384 -0.001955 -0.002444
    14 H     0.003408  0.004569 -0.002577
    15 H     0.000182 -0.000175 -0.000340
 ----------------------------------------

 dE(predicted):    -0.49665E-02, dE(actual):    -0.37233E-02, Trust radius:    0.200000, all in a.u.
 
----------------------------------------------------------------------
Geometry Convergence after Step   3       (Hartree/Angstrom,Angstrom)
----------------------------------------------------------------------
current energy                               -3.03977143 Hartree
energy change                      -0.00372333     0.00015000    F
constrained gradient max            0.02860122     0.00010000    F
constrained gradient rms            0.00969094     0.00006667    F
gradient max                        0.02860122
gradient rms                        0.00969094
cart. step max                      0.14996960     0.01000000    F
cart. step rms                      0.03982889     0.00666667    F
 

--------
Geometry
--------
Formula: C4H7NO3
Atoms
  Index Symbol   x (angstrom)   y (angstrom)   z (angstrom)
      1      C     5.23392945    -0.23501548    -0.62021863
      2      O     3.80921778    -0.34257101    -0.90568848
      3      C     3.00301242    -0.36322438     0.20385078
      4      O     3.42288894    -0.39099831     1.35106853
      5      C     1.56947874    -0.49480782    -0.12535413
      6      O     0.88165620    -0.05134222    -1.17580809
      7      N     0.96754037     1.09324065    -1.89449376
      8      C     2.06978865     1.94391181    -1.49751916
      9      H     5.72258732    -0.22133283    -1.59621930
     10      H     5.44308419     0.68694234    -0.06668706
     11      H     5.56918003    -1.09392781    -0.03025990
     12      H     1.03457697    -1.30354849     0.36537829
     13      H     3.04761554     1.54083495    -1.80129938
     14      H     2.09762430     2.09317103    -0.39931330
     15      H     1.90253913     2.90361757    -1.99826642

Total System Charge              0.00000

 *** GO1_GOStep4 ***

 Energy gradients wrt nuclear displacements
 ==========================================

     Atom      Cartesian (a.u./angstrom)
                 X         Y         Z
 ----------------------------------------
     1 C    -0.006390  0.000583 -0.001024
     2 O     0.001730 -0.005494  0.006419
     3 C     0.010849 -0.002366 -0.004929
     4 O    -0.002593  0.002995 -0.005192
     5 C    -0.013590  0.008470  0.011855
     6 O     0.014631 -0.004203 -0.011509
     7 N    -0.008085  0.002687  0.006775
     8 C    -0.001978 -0.001924  0.004508
     9 H     0.000881  0.000067  0.000035
    10 H     0.000495  0.000613 -0.000027
    11 H     0.000726 -0.000475  0.000003
    12 H     0.001037 -0.003570 -0.003414
    13 H    -0.000198 -0.002326 -0.000891
    14 H     0.001078  0.003787 -0.002191
    15 H     0.001408  0.001155 -0.000417
 ----------------------------------------

 dE(predicted):    -0.25057E-02, dE(actual):    -0.22992E-02, Trust radius:    0.400000, all in a.u.
 Residual max backtransformation error   0.1587E-03
 
----------------------------------------------------------------------
Geometry Convergence after Step   4       (Hartree/Angstrom,Angstrom)
----------------------------------------------------------------------
current energy                               -3.04207065 Hartree
energy change                      -0.00229923     0.00015000    F
constrained gradient max            0.01464597     0.00010000    F
constrained gradient rms            0.00531673     0.00006667    F
gradient max                        0.01464597
gradient rms                        0.00531673
cart. step max                      0.17333194     0.01000000    F
cart. step rms                      0.06912678     0.00666667    F
 

--------
Geometry
--------
Formula: C4H7NO3
Atoms
  Index Symbol   x (angstrom)   y (angstrom)   z (angstrom)
      1      C     5.24178373    -0.20750421    -0.58720170
      2      O     3.80493666    -0.21812393    -0.87871626
      3      C     3.00425084    -0.38907852     0.23855756
      4      O     3.44439587    -0.56064021     1.36693391
      5      C     1.57525689    -0.50939913    -0.09394635
      6      O     0.83070456    -0.01892008    -1.09009266
      7      N     0.94444761     1.09282830    -1.87266704
      8      C     2.08218905     1.94402945    -1.58978618
      9      H     5.72261082    -0.05524067    -1.55369512
     10      H     5.48200519     0.60312702     0.10664489
     11      H     5.54153911    -1.16068339    -0.14453851
     12      H     1.01920872    -1.28198355     0.42666608
     13      H     3.03705959     1.56113590    -1.97272745
     14      H     2.18765853     2.05818731    -0.48935891
     15      H     1.85667283     2.90721571    -2.05690225

Total System Charge              0.00000

 *** GO1_GOStep5 ***

 Energy gradients wrt nuclear displacements
 ==========================================

     Atom      Cartesian (a.u./angstrom)
                 X         Y         Z
 ----------------------------------------
     1 C     0.004668 -0.001112  0.000779
     2 O    -0.001403  0.000017 -0.007356
     3 C     0.000340 -0.000679  0.012393
     4 O     0.002456  0.001605 -0.001582
     5 C    -0.001523 -0.001293  0.009418
     6 O    -0.010229 -0.011044 -0.003609
     7 N     0.004885  0.009139  0.008427
     8 C     0.004086  0.007203 -0.016085
     9 H    -0.000853 -0.000192  0.000965
    10 H    -0.000128 -0.000867 -0.000187
    11 H    -0.000092  0.001432 -0.000288
    12 H     0.000374 -0.002514 -0.005732
    13 H    -0.001019  0.001577 -0.000089
    14 H    -0.003872 -0.003383  0.002425
    15 H     0.002312  0.000112  0.000520
 ----------------------------------------

 dE(predicted):    -0.23615E-02, dE(actual):    -0.11363E-02, Trust radius:    0.400000, all in a.u.
 
----------------------------------------------------------------------
Geometry Convergence after Step   5       (Hartree/Angstrom,Angstrom)
----------------------------------------------------------------------
current energy                               -3.04320692 Hartree
energy change                      -0.00113626     0.00015000    F
constrained gradient max            0.01613848     0.00010000    F
constrained gradient rms            0.00509549     0.00006667    F
gradient max                        0.01613848
gradient rms                        0.00509549
cart. step max                      0.21159562     0.01000000    F
cart. step rms                      0.06907875     0.00666667    F
 

--------
Geometry
--------
Formula: C4H7NO3
Atoms
  Index Symbol   x (angstrom)   y (angstrom)   z (angstrom)
      1      C     5.27049477    -0.24775126    -0.61049670
      2      O     3.83383015    -0.21673891    -0.90742663
      3      C     3.02041461    -0.35502138     0.20523363
      4      O     3.44544066    -0.50096782     1.34407181
      5      C     1.60027053    -0.47839598    -0.13498969
      6      O     0.87054437    -0.06125754    -1.16653262
      7      N     1.03147904     1.00115451    -1.99641528
      8      C     2.04081626     1.93326761    -1.54024819
      9      H     5.75697169    -0.11744946    -1.57781658
     10      H     5.53159048     0.55991244     0.07896375
     11      H     5.53524679    -1.20822417    -0.16069161
     12      H     0.99463391    -1.10110765     0.51512231
     13      H     3.07371477     1.64923629    -1.77925775
     14      H     1.97606290     2.02711514    -0.43411139
     15      H     1.79320908     2.88117817    -2.02623504

Total System Charge              0.00000

 *** GO1_GOStep6 ***

 Energy gradients wrt nuclear displacements
 ==========================================

     Atom      Cartesian (a.u./angstrom)
                 X         Y         Z
 ----------------------------------------
     1 C     0.006547 -0.000938  0.001030
     2 O    -0.000675 -0.001335 -0.006441
     3 C    -0.000879 -0.001402  0.011294
     4 O     0.000580  0.002008 -0.001679
     5 C     0.003538 -0.004407 -0.009457
     6 O    -0.001842  0.004658  0.005737
     7 N     0.000018 -0.002574 -0.000232
     8 C     0.003075  0.002387 -0.002620
     9 H    -0.000837 -0.000099  0.000162
    10 H    -0.000472 -0.000620 -0.000217
    11 H    -0.000679  0.000989 -0.000316
    12 H    -0.002874  0.003674 -0.001254
    13 H    -0.001939  0.000574  0.001115
    14 H    -0.002578 -0.001272  0.001591
    15 H    -0.000984 -0.001642  0.001287
 ----------------------------------------

 dE(predicted):    -0.14411E-02, dE(actual):    -0.81066E-03, Trust radius:    0.400000, all in a.u.
 
----------------------------------------------------------------------
Geometry Convergence after Step   6       (Hartree/Angstrom,Angstrom)
----------------------------------------------------------------------
current energy                               -3.04401758 Hartree
energy change                      -0.00081066     0.00015000    F
constrained gradient max            0.01132019     0.00010000    F
constrained gradient rms            0.00327141     0.00006667    F
gradient max                        0.01132019
gradient rms                        0.00327141
cart. step max                      0.09688655     0.01000000    F
cart. step rms                      0.03888674     0.00666667    F
 

--------
Geometry
--------
Formula: C4H7NO3
Atoms
  Index Symbol   x (angstrom)   y (angstrom)   z (angstrom)
      1      C     5.24203495    -0.20827268    -0.60605436
      2      O     3.80710069    -0.18208220    -0.88309395
      3      C     3.00766272    -0.38241844     0.22061201
      4      O     3.44108736    -0.59785437     1.34609844
      5      C     1.58180813    -0.48395787    -0.10228319
      6      O     0.85657635    -0.04550002    -1.12745109
      7      N     1.01521369     1.01703208    -1.95525148
      8      C     2.07304207     1.92364329    -1.56244606
      9      H     5.71879841    -0.02480106    -1.57065763
     10      H     5.50287345     0.56985773     0.11826346
     11      H     5.52692444    -1.18668486    -0.20695382
     12      H     0.99816999    -1.15694640     0.51924598
     13      H     3.08099042     1.58318691    -1.83793638
     14      H     2.07274307     2.07721870    -0.46314677
     15      H     1.84969425     2.86252918    -2.07977517

Total System Charge              0.00000

 *** GO1_GOStep7 ***

 Energy gradients wrt nuclear displacements
 ==========================================

     Atom      Cartesian (a.u./angstrom)
                 X         Y         Z
 ----------------------------------------
     1 C     0.000679  0.000083 -0.000374
     2 O    -0.002569  0.000707  0.000245
     3 C     0.004436  0.001235  0.003717
     4 O    -0.000617  0.000664 -0.002358
     5 C    -0.002074 -0.002041 -0.005275
     6 O    -0.000289  0.002433  0.001771
     7 N     0.001003 -0.002221  0.001195
     8 C     0.000237 -0.000584  0.000262
     9 H    -0.000201  0.000013 -0.000325
    10 H    -0.000205  0.000342  0.000147
    11 H    -0.000323 -0.000534 -0.000050
    12 H    -0.000562 -0.000528  0.000149
    13 H     0.000161 -0.000928  0.000199
    14 H    -0.000013  0.001617  0.000581
    15 H     0.000338 -0.000258  0.000114
 ----------------------------------------

 dE(predicted):    -0.52913E-03, dE(actual):    -0.42668E-03, Trust radius:    0.400000, all in a.u.
 
----------------------------------------------------------------------
Geometry Convergence after Step   7       (Hartree/Angstrom,Angstrom)
----------------------------------------------------------------------
current energy                               -3.04444426 Hartree
energy change                      -0.00042668     0.00015000    F
constrained gradient max            0.00527767     0.00010000    F
constrained gradient rms            0.00154744     0.00006667    F
gradient max                        0.00527767
gradient rms                        0.00154744
cart. step max                      0.06021614     0.01000000    F
cart. step rms                      0.01726820     0.00666667    F
 

--------
Geometry
--------
Formula: C4H7NO3
Atoms
  Index Symbol   x (angstrom)   y (angstrom)   z (angstrom)
      1      C     5.25124782    -0.21971454    -0.59333956
      2      O     3.81861933    -0.18364892    -0.87994705
      3      C     3.01322278    -0.38109314     0.22062059
      4      O     3.44422576    -0.60703694     1.34573538
      5      C     1.58595460    -0.46933586    -0.09550803
      6      O     0.86127468    -0.04343096    -1.12891801
      7      N     1.00036733     1.02041211    -1.96095833
      8      C     2.05734271     1.93203281    -1.57706846
      9      H     5.73647959    -0.03570444    -1.55347932
     10      H     5.51315128     0.55371843     0.13531481
     11      H     5.52906419    -1.20064509    -0.19582693
     12      H     1.00652064    -1.14977272     0.52137184
     13      H     3.06025844     1.61710463    -1.89815252
     14      H     2.09450688     2.04865834    -0.47435709
     15      H     1.80248395     2.88340630    -2.05631731

Total System Charge              0.00000

 *** GO1_GOStep8 ***

 Energy gradients wrt nuclear displacements
 ==========================================

     Atom      Cartesian (a.u./angstrom)
                 X         Y         Z
 ----------------------------------------
     1 C     0.000233 -0.000014  0.000066
     2 O     0.000241 -0.001473  0.000194
     3 C     0.001659  0.001256  0.002173
     4 O    -0.000073  0.000231 -0.001636
     5 C    -0.002160 -0.001859  0.000100
     6 O     0.001898  0.001847  0.000677
     7 N    -0.001279  0.000243 -0.001489
     8 C    -0.000019 -0.000090 -0.000744
     9 H     0.000015 -0.000023 -0.000043
    10 H     0.000019  0.000070 -0.000025
    11 H    -0.000076 -0.000200 -0.000118
    12 H     0.000074 -0.000779 -0.000172
    13 H    -0.000577  0.000374 -0.000011
    14 H     0.000254  0.000394  0.000404
    15 H    -0.000210  0.000025  0.000625
 ----------------------------------------

 dE(predicted):    -0.12991E-03, dE(actual):    -0.89218E-04, Trust radius:    0.400000, all in a.u.
 
----------------------------------------------------------------------
Geometry Convergence after Step   8       (Hartree/Angstrom,Angstrom)
----------------------------------------------------------------------
current energy                               -3.04453348 Hartree
energy change                      -0.00008922     0.00015000    T
constrained gradient max            0.00220273     0.00010000    F
constrained gradient rms            0.00089561     0.00006667    F
gradient max                        0.00220273
gradient rms                        0.00089561
cart. step max                      0.02906489     0.01000000    F
cart. step rms                      0.01035416     0.00666667    F
 

--------
Geometry
--------
Formula: C4H7NO3
Atoms
  Index Symbol   x (angstrom)   y (angstrom)   z (angstrom)
      1      C     5.24712682    -0.20995193    -0.59625932
      2      O     3.81393468    -0.18002083    -0.88091618
      3      C     3.01076049    -0.39894189     0.21769712
      4      O     3.44369034    -0.63174122     1.34156739
      5      C     1.58220323    -0.46502101    -0.08965549
      6      O     0.85892071    -0.04481868    -1.12629060
      7      N     1.01109814     1.01222043    -1.96512489
      8      C     2.06568110     1.92556168    -1.57891803
      9      H     5.72977625    -0.00663955    -1.55379777
     10      H     5.50411059     0.55339174     0.14449838
     11      H     5.53329455    -1.19473359    -0.21481393
     12      H     0.99421719    -1.12320669     0.54257679
     13      H     3.07142918     1.60987368    -1.89061092
     14      H     2.09421820     2.04403226    -0.47643018
     15      H     1.81425851     2.87494559    -2.06435238

Total System Charge              0.00000

 *** GO1_GOStep9 ***

 Energy gradients wrt nuclear displacements
 ==========================================

     Atom      Cartesian (a.u./angstrom)
                 X         Y         Z
 ----------------------------------------
     1 C     0.000327  0.000312  0.000197
     2 O     0.000082  0.000990 -0.000415
     3 C     0.001110 -0.004619  0.000311
     4 O    -0.000128  0.001908  0.000137
     5 C    -0.002226  0.000311 -0.001449
     6 O     0.001143  0.000126  0.001655
     7 N    -0.000441 -0.000270 -0.000139
     8 C     0.000213  0.000622 -0.000696
     9 H    -0.000027  0.000044 -0.000047
    10 H     0.000149 -0.000116 -0.000110
    11 H    -0.000083 -0.000111 -0.000080
    12 H     0.000042  0.000240  0.000106
    13 H    -0.000189  0.000196 -0.000014
    14 H     0.000006  0.000091  0.000053
    15 H     0.000025  0.000276  0.000490
 ----------------------------------------

 dE(predicted):    -0.48732E-04, dE(actual):    -0.11187E-04, Trust radius:    0.400000, all in a.u.
 
----------------------------------------------------------------------
Geometry Convergence after Step   9       (Hartree/Angstrom,Angstrom)
----------------------------------------------------------------------
current energy                               -3.04454467 Hartree
energy change                      -0.00001119     0.00015000    T
constrained gradient max            0.00458973     0.00010000    F
constrained gradient rms            0.00095018     0.00006667    F
gradient max                        0.00458973
gradient rms                        0.00095018
cart. step max                      0.04094318     0.01000000    F
cart. step rms                      0.01330264     0.00666667    F
 

--------
Geometry
--------
Formula: C4H7NO3
Atoms
  Index Symbol   x (angstrom)   y (angstrom)   z (angstrom)
      1      C     5.24706412    -0.21015071    -0.60178288
      2      O     3.81281676    -0.16151322    -0.87957008
      3      C     3.01057943    -0.38242305     0.22045282
      4      O     3.44465969    -0.65358972     1.33680691
      5      C     1.58471921    -0.45144361    -0.08667234
      6      O     0.86502707    -0.05451275    -1.13563100
      7      N     1.02860823     0.99458542    -1.98235919
      8      C     2.06323071     1.92060778    -1.57397378
      9      H     5.72724761    -0.00041974    -1.55911075
     10      H     5.51511789     0.54154242     0.14666735
     11      H     5.52528311    -1.20179235    -0.23305558
     12      H     0.99510358    -1.09641971     0.55702641
     13      H     3.08166086     1.61148655    -1.84966774
     14      H     2.05501308     2.04668934    -0.47218664
     15      H     1.81858865     2.86230334    -2.07777349

Total System Charge              0.00000

 *** GO1_GOStep10 ***

 Energy gradients wrt nuclear displacements
 ==========================================

     Atom      Cartesian (a.u./angstrom)
                 X         Y         Z
 ----------------------------------------
     1 C     0.000614  0.000210  0.000097
     2 O    -0.001038 -0.000776 -0.001777
     3 C    -0.000585  0.005475 -0.000191
     4 O     0.000342 -0.002822  0.001955
     5 C     0.000376 -0.000915 -0.002761
     6 O    -0.000426 -0.000766  0.001830
     7 N    -0.000516 -0.000637 -0.000052
     8 C     0.001006 -0.000164  0.001612
     9 H    -0.000120 -0.000023  0.000010
    10 H     0.000026 -0.000324 -0.000187
    11 H     0.000096  0.000201 -0.000115
    12 H    -0.000163  0.000865  0.000093
    13 H     0.000590 -0.000268  0.000068
    14 H    -0.000216 -0.000177 -0.000552
    15 H     0.000013  0.000124 -0.000029
 ----------------------------------------

 dE(predicted):    -0.61434E-04, dE(actual):     0.24468E-04, Trust radius:    0.025116, all in a.u.
 
----------------------------------------------------------------------
Geometry Convergence after Step  10       (Hartree/Angstrom,Angstrom)
----------------------------------------------------------------------
current energy                               -3.04452020 Hartree
energy change                       0.00002447     0.00015000    T
constrained gradient max            0.00548575     0.00010000    F
constrained gradient rms            0.00121365     0.00006667    F
gradient max                        0.00548575
gradient rms                        0.00121365
cart. step max                      0.01338865     0.01000000    F
cart. step rms                      0.00460966     0.00666667    T
 

--------
Geometry
--------
Formula: C4H7NO3
Atoms
  Index Symbol   x (angstrom)   y (angstrom)   z (angstrom)
      1      C     5.24891629    -0.21347066    -0.59812802
      2      O     3.81538305    -0.16293222    -0.87636875
      3      C     3.01284706    -0.38834116     0.22136544
      4      O     3.44741976    -0.65317162     1.33803171
      5      C     1.58598440    -0.45294701    -0.08432697
      6      O     0.86653102    -0.05222478    -1.13279546
      7      N     1.02413495     0.99753820    -1.97964768
      8      C     2.05895099     1.92609566    -1.57876361
      9      H     5.73005883    -0.00040777    -1.55434986
     10      H     5.51692034     0.53536816     0.15344651
     11      H     5.52600602    -1.20700755    -0.23321181
     12      H     0.99751906    -1.10360227     0.55513602
     13      H     3.07556284     1.61922035    -1.86305639
     14      H     2.06028529     2.05396840    -0.47694758
     15      H     1.80820008     2.86686427    -2.08121356

Total System Charge              0.00000

 *** GO1_GOStep11 ***

 Energy gradients wrt nuclear displacements
 ==========================================

     Atom      Cartesian (a.u./angstrom)
                 X         Y         Z
 ----------------------------------------
     1 C     0.000219  0.000003  0.000008
     2 O    -0.000229 -0.000591 -0.000113
     3 C     0.000038  0.001616  0.000346
     4 O     0.000043 -0.000869 -0.000096
     5 C    -0.000141 -0.000737 -0.001395
     6 O     0.000210  0.000012  0.001157
     7 N    -0.000145 -0.000161 -0.000389
     8 C     0.000070  0.000241  0.000562
     9 H    -0.000045  0.000016 -0.000073
    10 H    -0.000003 -0.000119 -0.000075
    11 H     0.000019  0.000015 -0.000118
    12 H    -0.000011  0.000424  0.000333
    13 H     0.000040 -0.000011  0.000010
    14 H     0.000000  0.000073 -0.000195
    15 H    -0.000064  0.000087  0.000038
 ----------------------------------------

 dE(predicted):    -0.39704E-04, dE(actual):    -0.47053E-04, Trust radius:    0.050233, all in a.u.
 
----------------------------------------------------------------------
Geometry Convergence after Step  11       (Hartree/Angstrom,Angstrom)
----------------------------------------------------------------------
current energy                               -3.04456725 Hartree
energy change                      -0.00004705     0.00015000    T
constrained gradient max            0.00163132     0.00010000    F
constrained gradient rms            0.00044062     0.00006667    F
gradient max                        0.00163132
gradient rms                        0.00044062
cart. step max                      0.01649156     0.01000000    F
cart. step rms                      0.00451569     0.00666667    T
 

--------
Geometry
--------
Formula: C4H7NO3
Atoms
  Index Symbol   x (angstrom)   y (angstrom)   z (angstrom)
      1      C     5.24753702    -0.21382904    -0.59939327
      2      O     3.81412906    -0.16636027    -0.87791779
      3      C     3.01171800    -0.38636998     0.22103084
      4      O     3.44614966    -0.63668006     1.34092724
      5      C     1.58478416    -0.45442329    -0.08563752
      6      O     0.86700883    -0.05313384    -1.13564946
      7      N     1.02300284     1.00075459    -1.97750372
      8      C     2.06072399     1.92543336    -1.57554870
      9      H     5.72862367    -0.00912710    -1.55745754
     10      H     5.51546658     0.54171650     0.14553844
     11      H     5.52498983    -1.20408010    -0.22583865
     12      H     0.99833817    -1.11373273     0.54686078
     13      H     3.07568340     1.61658083    -1.86344650
     14      H     2.06490779     2.04931423    -0.47314739
     15      H     1.81165700     2.86888690    -2.07364677

Total System Charge              0.00000

 *** GO1_GOStep12 ***

 Energy gradients wrt nuclear displacements
 ==========================================

     Atom      Cartesian (a.u./angstrom)
                 X         Y         Z
 ----------------------------------------
     1 C     0.000033 -0.000026 -0.000099
     2 O    -0.000097  0.000089 -0.000013
     3 C     0.000272 -0.000104 -0.000236
     4 O    -0.000069  0.000012  0.000117
     5 C    -0.000380 -0.000015 -0.000157
     6 O     0.000231 -0.000128  0.000317
     7 N    -0.000408  0.000109 -0.000201
     8 C     0.000355  0.000034  0.000404
     9 H    -0.000031 -0.000009 -0.000060
    10 H     0.000018 -0.000065 -0.000069
    11 H     0.000005 -0.000027 -0.000121
    12 H     0.000070 -0.000011  0.000098
    13 H    -0.000015 -0.000014 -0.000024
    14 H     0.000007  0.000061 -0.000078
    15 H     0.000009  0.000094  0.000120
 ----------------------------------------

 dE(predicted):    -0.88637E-05, dE(actual):    -0.13022E-04, Trust radius:    0.050233, all in a.u.
 
----------------------------------------------------------------------
Geometry Convergence after Step  12       (Hartree/Angstrom,Angstrom)
----------------------------------------------------------------------
current energy                               -3.04458027 Hartree
energy change                      -0.00001302     0.00015000    T
constrained gradient max            0.00038535     0.00010000    F
constrained gradient rms            0.00015127     0.00006667    F
gradient max                        0.00038535
gradient rms                        0.00015127
cart. step max                      0.00552150     0.01000000    T
cart. step rms                      0.00172673     0.00666667    T
 

--------
Geometry
--------
Formula: C4H7NO3
Atoms
  Index Symbol   x (angstrom)   y (angstrom)   z (angstrom)
      1      C     5.24796075    -0.21526301    -0.59959327
      2      O     3.81453904    -0.16509725    -0.87734468
      3      C     3.01233072    -0.38546073     0.22168179
      4      O     3.44716374    -0.63707381     1.34115452
      5      C     1.58555697    -0.45287960    -0.08492086
      6      O     0.86870980    -0.05419041    -1.13670529
      7      N     1.02555749     0.99847292    -1.97971144
      8      C     2.05917169     1.92646984    -1.57549783
      9      H     5.72888401    -0.01076724    -1.55780038
     10      H     5.51763436     0.53928220     0.14573102
     11      H     5.52379938    -1.20629323    -0.22687849
     12      H     0.99901885    -1.11245207     0.54719701
     13      H     3.07607920     1.62046532    -1.85956082
     14      H     2.05938629     2.05113709    -0.47309232
     15      H     1.80892772     2.86860000    -2.07548896

Total System Charge              0.00000

 *** GO1_GOStep13 ***

 Energy gradients wrt nuclear displacements
 ==========================================

     Atom      Cartesian (a.u./angstrom)
                 X         Y         Z
 ----------------------------------------
     1 C     0.000001 -0.000042 -0.000082
     2 O    -0.000066 -0.000057  0.000056
     3 C     0.000096 -0.000041 -0.000253
     4 O     0.000025 -0.000049  0.000120
     5 C    -0.000125  0.000101 -0.000192
     6 O     0.000039 -0.000031  0.000357
     7 N    -0.000097  0.000045 -0.000111
     8 C     0.000132  0.000118  0.000276
     9 H    -0.000033 -0.000013 -0.000079
    10 H     0.000018 -0.000060 -0.000064
    11 H    -0.000008 -0.000042 -0.000119
    12 H     0.000065 -0.000046  0.000028
    13 H    -0.000042  0.000008  0.000004
    14 H     0.000011  0.000047 -0.000031
    15 H    -0.000017  0.000063  0.000091
 ----------------------------------------

 dE(predicted):    -0.73257E-06, dE(actual):    -0.14538E-05, Trust radius:    0.050233, all in a.u.
 
----------------------------------------------------------------------
Geometry Convergence after Step  13       (Hartree/Angstrom,Angstrom)
----------------------------------------------------------------------
current energy                               -3.04458173 Hartree
energy change                      -0.00000145     0.00015000    T
constrained gradient max            0.00030621     0.00010000    F
constrained gradient rms            0.00009442     0.00006667    F
gradient max                        0.00030621
gradient rms                        0.00009442
cart. step max                      0.00182064     0.01000000    T
cart. step rms                      0.00080850     0.00666667    T
 

--------
Geometry
--------
Formula: C4H7NO3
Atoms
  Index Symbol   x (angstrom)   y (angstrom)   z (angstrom)
      1      C     5.24808516    -0.21565132    -0.59964342
      2      O     3.81464404    -0.16370917    -0.87703223
      3      C     3.01252081    -0.38493587     0.22204406
      4      O     3.44771901    -0.63762448     1.34105724
      5      C     1.58585760    -0.45212458    -0.08453339
      6      O     0.86967807    -0.05500308    -1.13763769
      7      N     1.02673562     0.99731704    -1.98094024
      8      C     2.05858996     1.92657539    -1.57560681
      9      H     5.72898826    -0.01117707    -1.55786614
     10      H     5.51884237     0.53812229     0.14605929
     11      H     5.52283882    -1.20722364    -0.22756857
     12      H     0.99880369    -1.11085677     0.54795835
     13      H     3.07630415     1.62222059    -1.85857561
     14      H     2.05756565     2.05049924    -0.47302477
     15      H     1.80754678     2.86852144    -2.07552009

Total System Charge              0.00000

 *** GO1_GOStep14 ***

 Energy gradients wrt nuclear displacements
 ==========================================

     Atom      Cartesian (a.u./angstrom)
                 X         Y         Z
 ----------------------------------------
     1 C     0.000031 -0.000045 -0.000062
     2 O    -0.000063 -0.000048  0.000020
     3 C     0.000036 -0.000017 -0.000030
     4 O     0.000033 -0.000048 -0.000079
     5 C    -0.000007  0.000036 -0.000068
     6 O     0.000002 -0.000022  0.000202
     7 N    -0.000071  0.000093 -0.000031
     8 C     0.000081  0.000107  0.000126
     9 H    -0.000037 -0.000021 -0.000082
    10 H     0.000021 -0.000072 -0.000066
    11 H    -0.000017 -0.000044 -0.000117
    12 H     0.000026  0.000002  0.000031
    13 H    -0.000033  0.000037  0.000024
    14 H     0.000011 -0.000005  0.000038
    15 H    -0.000013  0.000046  0.000095
 ----------------------------------------
 
----------------------------------------------------------------------
Geometry Convergence after Step  14       (Hartree/Angstrom,Angstrom)
----------------------------------------------------------------------
current energy                               -3.04458116 Hartree
energy change                       0.00000056     0.00015000    T
constrained gradient max            0.00015011     0.00010000    F
constrained gradient rms            0.00004211     0.00006667    T
gradient max                        0.00015011
gradient rms                        0.00004211
cart. step max                      0.00067834     0.01000000    T
cart. step rms                      0.00025054     0.00666667    T
 

--------
Geometry
--------
Formula: C4H7NO3
Atoms
  Index Symbol   x (angstrom)   y (angstrom)   z (angstrom)
      1      C     5.24790187    -0.21543774    -0.59981885
      2      O     3.81444018    -0.16370273    -0.87701480
      3      C     3.01238970    -0.38505158     0.22215259
      4      O     3.44768139    -0.63782899     1.34111599
      5      C     1.58572788    -0.45214952    -0.08443981
      6      O     0.86983513    -0.05512712    -1.13787179
      7      N     1.02711429     0.99722265    -1.98098620
      8      C     2.05880059     1.92647277    -1.57543667
      9      H     5.72865993    -0.01153057    -1.55824157
     10      H     5.51877638     0.53880007     0.14538095
     11      H     5.52274709    -1.20678544    -0.22719070
     12      H     0.99849554    -1.11088523     0.54788200
     13      H     3.07659386     1.62213125    -1.85816648
     14      H     2.05764613     2.05037679    -0.47281712
     15      H     1.80791005     2.86844538    -2.07537754

Total System Charge              0.00000

 *** GO1_GOStep15 ***

 Energy gradients wrt nuclear displacements
 ==========================================

     Atom      Cartesian (a.u./angstrom)
                 X         Y         Z
 ----------------------------------------
     1 C     0.000019 -0.000017 -0.000074
     2 O    -0.000043 -0.000033 -0.000007
     3 C     0.000031 -0.000012 -0.000032
     4 O     0.000041 -0.000060 -0.000048
     5 C    -0.000015  0.000029 -0.000007
     6 O    -0.000013  0.000001  0.000103
     7 N    -0.000042  0.000085  0.000038
     8 C     0.000036  0.000070  0.000078
     9 H    -0.000034 -0.000024 -0.000087
    10 H     0.000023 -0.000070 -0.000068
    11 H    -0.000019 -0.000055 -0.000115
    12 H     0.000014 -0.000001  0.000030
    13 H    -0.000021  0.000034  0.000030
    14 H     0.000025  0.000002  0.000065
    15 H    -0.000002  0.000051  0.000095
 ----------------------------------------
 
---------------------------------------------------------
Geometry Convergence after Step  15       ** CONVERGED **
---------------------------------------------------------
current energy                               -3.04458097 Hartree
energy change                       0.00000019     0.00015000    T
constrained gradient max            0.00005031     0.00010000    T
constrained gradient rms            0.00001845     0.00006667    T
gradient max                        0.00005031
gradient rms                        0.00001845
cart. step max                      0.00034849     0.01000000    T
cart. step rms                      0.00012196     0.00666667    T
 
Geometry optimization converged

Optimized geometry:

--------
Geometry
--------
Formula: C4H7NO3
Atoms
  Index Symbol   x (angstrom)   y (angstrom)   z (angstrom)
      1      C     5.24790187    -0.21543774    -0.59981885
      2      O     3.81444018    -0.16370273    -0.87701480
      3      C     3.01238970    -0.38505158     0.22215259
      4      O     3.44768139    -0.63782899     1.34111599
      5      C     1.58572788    -0.45214952    -0.08443981
      6      O     0.86983513    -0.05512712    -1.13787179
      7      N     1.02711429     0.99722265    -1.98098620
      8      C     2.05880059     1.92647277    -1.57543667
      9      H     5.72865993    -0.01153057    -1.55824157
     10      H     5.51877638     0.53880007     0.14538095
     11      H     5.52274709    -1.20678544    -0.22719070
     12      H     0.99849554    -1.11088523     0.54788200
     13      H     3.07659386     1.62213125    -1.85816648
     14      H     2.05764613     2.05037679    -0.47281712
     15      H     1.80791005     2.86844538    -2.07537754

Total System Charge              0.00000

Performing a single point calculation on the final geometry ...

 *** adf ***



 ===========================
 A T T A C H E D   F I L E S
 ===========================
  
 Restart/tmp/amstmp_c4_fragA_opt_kid0.1836906379/GO1_GOStep15.rkf*** GO1_GOStep15 ***



 ===============================
 M O D E L   P A R A M E T E R S
 ===============================
  
 DENSITY FUNCTIONAL POTENTIAL (scf)
    LDA:                               Exchange only                           == Not Default ==
    Gradient Corrections:              Becke88 LYP                             == Not Default ==

 SPIN  (restricted / unrestr.)
    Molecule:                          Restricted                               
    Fragments:                         Restricted                               

 OTHER ASPECTS
    Relativistic Corrections:          scalar (ZORA,MAPA)                       

    Nuclear Charge Density Model:      Point Charge Nuclei                      
    Core Treatment:                    Frozen Orbital(s)                        

    Hyperfine or Zeeman Interaction:   ---                                      

 Settings for Grimme D3 dispersion correction

      damping                        BJ
      s6                          1.000
      s8                          2.700
      a1                          0.430
      a2                          4.236

 Other (technical) parameters

      alpha                      14.000
      version                         4
 



 ===============
 G E O M E T R Y  ***  3D  Molecule  ***
 ===============
  

 ATOMS
 =====                            X Y Z                    CHARGE
                                (Angstrom)             Nucl     +Core       At.Mass
                       --------------------------    ----------------       -------
    1  C               5.2479   -0.2154   -0.5998      6.00      6.00       12.0000
    2  O               3.8144   -0.1637   -0.8770      8.00      8.00       15.9949
    3  C               3.0124   -0.3851    0.2222      6.00      6.00       12.0000
    4  O               3.4477   -0.6378    1.3411      8.00      8.00       15.9949
    5  C               1.5857   -0.4521   -0.0844      6.00      6.00       12.0000
    6  O               0.8698   -0.0551   -1.1379      8.00      8.00       15.9949
    7  N               1.0271    0.9972   -1.9810      7.00      7.00       14.0031
    8  C               2.0588    1.9265   -1.5754      6.00      6.00       12.0000
    9  H               5.7287   -0.0115   -1.5582      1.00      1.00        1.0078
   10  H               5.5188    0.5388    0.1454      1.00      1.00        1.0078
   11  H               5.5227   -1.2068   -0.2272      1.00      1.00        1.0078
   12  H               0.9985   -1.1109    0.5479      1.00      1.00        1.0078
   13  H               3.0766    1.6221   -1.8582      1.00      1.00        1.0078
   14  H               2.0576    2.0504   -0.4728      1.00      1.00        1.0078
   15  H               1.8079    2.8684   -2.0754      1.00      1.00        1.0078


 FRAGMENTS
 =========                                     Atoms in this Fragment     Cart. coord.s (Angstrom)
                                               -------------------------------------------------------
    1  C                                                 1  C            5.2479   -0.2154   -0.5998
    2  C                                                 3  C            3.0124   -0.3851    0.2222
    3  C                                                 5  C            1.5857   -0.4521   -0.0844
    4  C                                                 8  C            2.0588    1.9265   -1.5754
    5  O                                                 2  O            3.8144   -0.1637   -0.8770
    6  O                                                 4  O            3.4477   -0.6378    1.3411
    7  O                                                 6  O            0.8698   -0.0551   -1.1379
    8  N                                                 7  N            1.0271    0.9972   -1.9810
    9  H                                                 9  H            5.7287   -0.0115   -1.5582
   10  H                                                10  H            5.5188    0.5388    0.1454
   11  H                                                11  H            5.5227   -1.2068   -0.2272
   12  H                                                12  H            0.9985   -1.1109    0.5479
   13  H                                                13  H            3.0766    1.6221   -1.8582
   14  H                                                14  H            2.0576    2.0504   -0.4728
   15  H                                                15  H            1.8079    2.8684   -2.0754


 Interatomic Distance Matrix (Angstrom)
 --------------------------------------

   1)     0.000
   2)     1.461   0.000
   3)     2.388   1.379   0.000
   4)     2.681   2.298   1.227   0.000
   5)     3.706   2.383   1.461   2.352   0.000
   6)     4.414   2.958   2.559   3.624   1.334   0.000
   7)     4.604   3.215   3.272   4.424   2.451   1.358   0.000
   8)     3.964   2.818   3.080   4.124   2.847   2.352   1.446   0.000
   9)     1.091   2.038   3.269   3.742   4.419   4.877   4.827   4.150   0.000
  10)     1.094   2.108   2.672   2.665   4.062   4.859   4.991   4.106   1.803   0.000
  11)     1.094   2.104   2.679   2.663   4.011   4.879   5.305   4.861   1.801   1.785
          0.000
  12)     4.492   3.295   2.165   2.618   1.086   1.993   3.292   3.855   5.293   4.829
          4.591   0.000
  13)     3.110   2.167   2.891   3.935   3.110   2.864   2.146   1.099   3.129   3.339
          4.080   4.192   0.000
  14)     3.915   2.855   2.707   3.528   2.576   2.507   2.108   1.110   4.348   3.827
          4.762   3.487   1.772   0.000
  15)     4.850   3.828   4.161   5.163   3.878   3.210   2.030   1.096   4.892   4.912
          5.816   4.834   1.792   1.817   0.000

 Min. Distance =    1.0856
 Max. Distance =    5.8158



 =====================================
 S Y M M E T R Y ,   E L E C T R O N S
 =====================================
  
 Symmetry: NOSYM

 Irreducible Representations, including subspecies
 -------------------------------------------------
 A


 Configuration of Valence Electrons
 ==================================
 ( determined in the SCF procedure )

 Total:   62

 Net Charge: 0 (Nuclei minus Electrons)

 Aufbau principle for MO occupations will be applied through SCF cycle no.     100
 Thereafter, the program will assign electrons to MOs that are spatially
 similar to the occupied MOs in a "reference" cycle ("KeepOrbitals").
 The reference cycle is always the PREVIOUS cycle: it will evolve with
 the SCF procedure.
 ***************************************************************************************************



                                      ****************************************
                                      *  B U I L D : (Fragments, Functions)  *
                                      ****************************************
  



 =======
 S F O s  ***  (Symmetrized Fragment Orbitals)  ***
 =======
  
 SFOs are linear combinations of (valence) Fragment Orbitals (FOs), such that the SFOs transform as the
 irreducible representations of the (molecular) symmetry group. Each SFO is therefore characterized by
 an irrep of the molecule and by a few (or only one) generating FOs.
 The SFOs constitute a symmetry-adapted basis for the Fock matrix. The MO eigenvector coefficients in
 this basis provide a direct interpretation of the MOs in terms of Frontier Orbital Theory.

 The SFOs are combined with auxiliary Core Functions (CFs) to ensure orthogonalization on the (frozen)
 Core Orbitals (COs). The Core-orthogonalized SFOs (CSFOs) constitute the true Fock basis.

 The FOs, and hence also the (C)SFOs are combinations of the elementary basis functions (BAS). The basis
 functions that participate in the description of the SFOs depend on the irrep. The indices of the
 involved functions are printed below for each irrep.
 (The complete list of primitive basis functions is printed in another section)

 Total nr. of (C)SFOs (summation over all irreps) :   285

 NOTE: a (C)SFO that is defined as a combination of more than one FO is usually NOT normalized.



                                       === A ===
 Nr. of SFOs :  285
 Cartesian basis functions that participate in this irrep (total number =   324) :
      1     2     3     4     5     6     9    12     7    10
     13     8    11    14    15    16    17    18    19    20
     21    22    23    24    25    26    27    28    29    30
     31    32    33    34    35    36    39    42    37    40
     43    38    41    44    45    46    47    48    49    50
     51    52    53    54    55    56    57    58    59    60
     61    62    63    64    65    66    69    72    67    70
     73    68    71    74    75    76    77    78    79    80
     81    82    83    84    85    86    87    88    89    90
     91    92    93    94    95    96    99   102    97   100
    103    98   101   104   105   106   107   108   109   110
    111   112   113   114   115   116   117   118   119   120
    121   122   123   124   125   126   129   132   127   130
    133   128   131   134   135   136   137   138   139   140
    141   142   143   144   145   146   147   148   149   150
    151   152   153   154   155   156   159   162   157   160
    163   158   161   164   165   166   167   168   169   170
    171   172   173   174   175   176   177   178   179   180
    181   182   183   184   185   186   189   192   187   190
    193   188   191   194   195   196   197   198   199   200
    201   202   203   204   205   206   207   208   209   210
    211   212   213   214   215   216   219   222   217   220
    223   218   221   224   225   226   227   228   229   230
    231   232   233   234   235   236   237   238   239   240
    241   242   243   244   245   246   247   248   249   250
    251   252   253   254   255   256   257   258   259   260
    261   262   263   264   265   266   267   268   269   270
    271   272   273   274   275   276   277   278   279   280
    281   282   283   284   285   286   287   288   289   290
    291   292   293   294   295   296   297   298   299   300
    301   302   303   304   305   306   307   308   309   310
    311   312   313   314   315   316   317   318   319   320
    321   322   323   324

    SFO  (index         Fragment          Generating    Expansion in Fragment Orbitals
  indx  incl.CFs)   Occup   Orb.Energy   FragmentType  Coeff.   Orbital     on Fragment
 --------------------------------------------------------------------------------------
     1       1      2.000     -10.066 au  C             1.00      1 S               1
                        (    -273.921 eV)
     2       2      2.000      -0.501 au  C             1.00      2 S               1
                        (     -13.620 eV)
     3       3       --         0.373 au  C             1.00      3 S               1
                        (      10.158 eV)
     4       4       --         5.405 au  C             1.00      4 S               1
                        (     147.073 eV)
     5       5       --        49.848 au  C             1.00      5 S               1
                        (    1356.422 eV)
     6       6      0.667      -0.193 au  C             1.00      1 P:x             1
                        (      -5.239 eV)
     7       7       --         0.169 au  C             1.00      2 P:x             1
                        (       4.589 eV)
     8       8       --         2.013 au  C             1.00      3 P:x             1
                        (      54.789 eV)
     9       9      0.667      -0.193 au  C             1.00      1 P:y             1
                        (      -5.239 eV)
    10      10       --         0.169 au  C             1.00      2 P:y             1
                        (       4.589 eV)
    11      11       --         2.013 au  C             1.00      3 P:y             1
                        (      54.789 eV)
    12      12      0.667      -0.193 au  C             1.00      1 P:z             1
                        (      -5.239 eV)
    13      13       --         0.169 au  C             1.00      2 P:z             1
                        (       4.589 eV)
    14      14       --         2.013 au  C             1.00      3 P:z             1
                        (      54.789 eV)
    15      15       --         1.243 au  C             1.00      1 D:z2            1
                        (      33.824 eV)
    16      16       --         1.243 au  C             1.00      1 D:x2-y2         1
                        (      33.824 eV)
    17      17       --         1.243 au  C             1.00      1 D:xy            1
                        (      33.824 eV)
    18      18       --         1.243 au  C             1.00      1 D:xz            1
                        (      33.824 eV)
    19      19       --         1.243 au  C             1.00      1 D:yz            1
                        (      33.824 eV)
    20      20       --         4.016 au  C             1.00      1 F:z3            1
                        (     109.271 eV)
    21      21       --         4.016 au  C             1.00      1 F:z             1
                        (     109.271 eV)
    22      22       --         4.016 au  C             1.00      1 F:xyz           1
                        (     109.271 eV)
    23      23       --         4.016 au  C             1.00      1 F:z2x           1
                        (     109.271 eV)
    24      24       --         4.016 au  C             1.00      1 F:z2y           1
                        (     109.271 eV)
    25      25       --         4.016 au  C             1.00      1 F:x             1
                        (     109.271 eV)
    26      26       --         4.016 au  C             1.00      1 F:y             1
                        (     109.271 eV)
    27      27      2.000     -10.066 au  C             1.00      1 S               2
                        (    -273.921 eV)
    28      28      2.000      -0.501 au  C             1.00      2 S               2
                        (     -13.620 eV)
    29      29       --         0.373 au  C             1.00      3 S               2
                        (      10.158 eV)
    30      30       --         5.405 au  C             1.00      4 S               2
                        (     147.073 eV)
    31      31       --        49.848 au  C             1.00      5 S               2
                        (    1356.422 eV)
    32      32      0.667      -0.193 au  C             1.00      1 P:x             2
                        (      -5.239 eV)
    33      33       --         0.169 au  C             1.00      2 P:x             2
                        (       4.589 eV)
    34      34       --         2.013 au  C             1.00      3 P:x             2
                        (      54.789 eV)
    35      35      0.667      -0.193 au  C             1.00      1 P:y             2
                        (      -5.239 eV)
    36      36       --         0.169 au  C             1.00      2 P:y             2
                        (       4.589 eV)
    37      37       --         2.013 au  C             1.00      3 P:y             2
                        (      54.789 eV)
    38      38      0.667      -0.193 au  C             1.00      1 P:z             2
                        (      -5.239 eV)
    39      39       --         0.169 au  C             1.00      2 P:z             2
                        (       4.589 eV)
    40      40       --         2.013 au  C             1.00      3 P:z             2
                        (      54.789 eV)
    41      41       --         1.243 au  C             1.00      1 D:z2            2
                        (      33.824 eV)
    42      42       --         1.243 au  C             1.00      1 D:x2-y2         2
                        (      33.824 eV)
    43      43       --         1.243 au  C             1.00      1 D:xy            2
                        (      33.824 eV)
    44      44       --         1.243 au  C             1.00      1 D:xz            2
                        (      33.824 eV)
    45      45       --         1.243 au  C             1.00      1 D:yz            2
                        (      33.824 eV)
    46      46       --         4.016 au  C             1.00      1 F:z3            2
                        (     109.271 eV)
    47      47       --         4.016 au  C             1.00      1 F:z             2
                        (     109.271 eV)
    48      48       --         4.016 au  C             1.00      1 F:xyz           2
                        (     109.271 eV)
    49      49       --         4.016 au  C             1.00      1 F:z2x           2
                        (     109.271 eV)
    50      50       --         4.016 au  C             1.00      1 F:z2y           2
                        (     109.271 eV)
    51      51       --         4.016 au  C             1.00      1 F:x             2
                        (     109.271 eV)
    52      52       --         4.016 au  C             1.00      1 F:y             2
                        (     109.271 eV)
    53      53      2.000     -10.066 au  C             1.00      1 S               3
                        (    -273.921 eV)
    54      54      2.000      -0.501 au  C             1.00      2 S               3
                        (     -13.620 eV)
    55      55       --         0.373 au  C             1.00      3 S               3
                        (      10.158 eV)
    56      56       --         5.405 au  C             1.00      4 S               3
                        (     147.073 eV)
    57      57       --        49.848 au  C             1.00      5 S               3
                        (    1356.422 eV)
    58      58      0.667      -0.193 au  C             1.00      1 P:x             3
                        (      -5.239 eV)
    59      59       --         0.169 au  C             1.00      2 P:x             3
                        (       4.589 eV)
    60      60       --         2.013 au  C             1.00      3 P:x             3
                        (      54.789 eV)
    61      61      0.667      -0.193 au  C             1.00      1 P:y             3
                        (      -5.239 eV)
    62      62       --         0.169 au  C             1.00      2 P:y             3
                        (       4.589 eV)
    63      63       --         2.013 au  C             1.00      3 P:y             3
                        (      54.789 eV)
    64      64      0.667      -0.193 au  C             1.00      1 P:z             3
                        (      -5.239 eV)
    65      65       --         0.169 au  C             1.00      2 P:z             3
                        (       4.589 eV)
    66      66       --         2.013 au  C             1.00      3 P:z             3
                        (      54.789 eV)
    67      67       --         1.243 au  C             1.00      1 D:z2            3
                        (      33.824 eV)
    68      68       --         1.243 au  C             1.00      1 D:x2-y2         3
                        (      33.824 eV)
    69      69       --         1.243 au  C             1.00      1 D:xy            3
                        (      33.824 eV)
    70      70       --         1.243 au  C             1.00      1 D:xz            3
                        (      33.824 eV)
    71      71       --         1.243 au  C             1.00      1 D:yz            3
                        (      33.824 eV)
    72      72       --         4.016 au  C             1.00      1 F:z3            3
                        (     109.271 eV)
    73      73       --         4.016 au  C             1.00      1 F:z             3
                        (     109.271 eV)
    74      74       --         4.016 au  C             1.00      1 F:xyz           3
                        (     109.271 eV)
    75      75       --         4.016 au  C             1.00      1 F:z2x           3
                        (     109.271 eV)
    76      76       --         4.016 au  C             1.00      1 F:z2y           3
                        (     109.271 eV)
    77      77       --         4.016 au  C             1.00      1 F:x             3
                        (     109.271 eV)
    78      78       --         4.016 au  C             1.00      1 F:y             3
                        (     109.271 eV)
    79      79      2.000     -10.066 au  C             1.00      1 S               4
                        (    -273.921 eV)
    80      80      2.000      -0.501 au  C             1.00      2 S               4
                        (     -13.620 eV)
    81      81       --         0.373 au  C             1.00      3 S               4
                        (      10.158 eV)
    82      82       --         5.405 au  C             1.00      4 S               4
                        (     147.073 eV)
    83      83       --        49.848 au  C             1.00      5 S               4
                        (    1356.422 eV)
    84      84      0.667      -0.193 au  C             1.00      1 P:x             4
                        (      -5.239 eV)
    85      85       --         0.169 au  C             1.00      2 P:x             4
                        (       4.589 eV)
    86      86       --         2.013 au  C             1.00      3 P:x             4
                        (      54.789 eV)
    87      87      0.667      -0.193 au  C             1.00      1 P:y             4
                        (      -5.239 eV)
    88      88       --         0.169 au  C             1.00      2 P:y             4
                        (       4.589 eV)
    89      89       --         2.013 au  C             1.00      3 P:y             4
                        (      54.789 eV)
    90      90      0.667      -0.193 au  C             1.00      1 P:z             4
                        (      -5.239 eV)
    91      91       --         0.169 au  C             1.00      2 P:z             4
                        (       4.589 eV)
    92      92       --         2.013 au  C             1.00      3 P:z             4
                        (      54.789 eV)
    93      93       --         1.243 au  C             1.00      1 D:z2            4
                        (      33.824 eV)
    94      94       --         1.243 au  C             1.00      1 D:x2-y2         4
                        (      33.824 eV)
    95      95       --         1.243 au  C             1.00      1 D:xy            4
                        (      33.824 eV)
    96      96       --         1.243 au  C             1.00      1 D:xz            4
                        (      33.824 eV)
    97      97       --         1.243 au  C             1.00      1 D:yz            4
                        (      33.824 eV)
    98      98       --         4.016 au  C             1.00      1 F:z3            4
                        (     109.271 eV)
    99      99       --         4.016 au  C             1.00      1 F:z             4
                        (     109.271 eV)
   100     100       --         4.016 au  C             1.00      1 F:xyz           4
                        (     109.271 eV)
   101     101       --         4.016 au  C             1.00      1 F:z2x           4
                        (     109.271 eV)
   102     102       --         4.016 au  C             1.00      1 F:z2y           4
                        (     109.271 eV)
   103     103       --         4.016 au  C             1.00      1 F:x             4
                        (     109.271 eV)
   104     104       --         4.016 au  C             1.00      1 F:y             4
                        (     109.271 eV)
   105     105      2.000     -18.941 au  O             1.00      1 S               5
                        (    -515.403 eV)
   106     106      2.000      -0.876 au  O             1.00      2 S               5
                        (     -23.838 eV)
   107     107       --         0.791 au  O             1.00      3 S               5
                        (      21.524 eV)
   108     108       --        13.422 au  O             1.00      4 S               5
                        (     365.226 eV)
   109     109       --       121.561 au  O             1.00      5 S               5
                        (    3307.838 eV)
   110     110      1.333      -0.331 au  O             1.00      1 P:x             5
                        (      -9.020 eV)
   111     111       --         0.347 au  O             1.00      2 P:x             5
                        (       9.437 eV)
   112     112       --         3.820 au  O             1.00      3 P:x             5
                        (     103.939 eV)
   113     113      1.333      -0.331 au  O             1.00      1 P:y             5
                        (      -9.020 eV)
   114     114       --         0.347 au  O             1.00      2 P:y             5
                        (       9.437 eV)
   115     115       --         3.820 au  O             1.00      3 P:y             5
                        (     103.939 eV)
   116     116      1.333      -0.331 au  O             1.00      1 P:z             5
                        (      -9.020 eV)
   117     117       --         0.347 au  O             1.00      2 P:z             5
                        (       9.437 eV)
   118     118       --         3.820 au  O             1.00      3 P:z             5
                        (     103.939 eV)
   119     119       --         1.071 au  O             1.00      1 D:z2            5
                        (      29.134 eV)
   120     120       --         1.071 au  O             1.00      1 D:x2-y2         5
                        (      29.134 eV)
   121     121       --         1.071 au  O             1.00      1 D:xy            5
                        (      29.134 eV)
   122     122       --         1.071 au  O             1.00      1 D:xz            5
                        (      29.134 eV)
   123     123       --         1.071 au  O             1.00      1 D:yz            5
                        (      29.134 eV)
   124     124       --         3.359 au  O             1.00      1 F:z3            5
                        (      91.410 eV)
   125     125       --         3.359 au  O             1.00      1 F:z             5
                        (      91.410 eV)
   126     126       --         3.359 au  O             1.00      1 F:xyz           5
                        (      91.410 eV)
   127     127       --         3.359 au  O             1.00      1 F:z2x           5
                        (      91.410 eV)
   128     128       --         3.359 au  O             1.00      1 F:z2y           5
                        (      91.410 eV)
   129     129       --         3.359 au  O             1.00      1 F:x             5
                        (      91.410 eV)
   130     130       --         3.359 au  O             1.00      1 F:y             5
                        (      91.410 eV)
   131     131      2.000     -18.941 au  O             1.00      1 S               6
                        (    -515.403 eV)
   132     132      2.000      -0.876 au  O             1.00      2 S               6
                        (     -23.838 eV)
   133     133       --         0.791 au  O             1.00      3 S               6
                        (      21.524 eV)
   134     134       --        13.422 au  O             1.00      4 S               6
                        (     365.226 eV)
   135     135       --       121.561 au  O             1.00      5 S               6
                        (    3307.838 eV)
   136     136      1.333      -0.331 au  O             1.00      1 P:x             6
                        (      -9.020 eV)
   137     137       --         0.347 au  O             1.00      2 P:x             6
                        (       9.437 eV)
   138     138       --         3.820 au  O             1.00      3 P:x             6
                        (     103.939 eV)
   139     139      1.333      -0.331 au  O             1.00      1 P:y             6
                        (      -9.020 eV)
   140     140       --         0.347 au  O             1.00      2 P:y             6
                        (       9.437 eV)
   141     141       --         3.820 au  O             1.00      3 P:y             6
                        (     103.939 eV)
   142     142      1.333      -0.331 au  O             1.00      1 P:z             6
                        (      -9.020 eV)
   143     143       --         0.347 au  O             1.00      2 P:z             6
                        (       9.437 eV)
   144     144       --         3.820 au  O             1.00      3 P:z             6
                        (     103.939 eV)
   145     145       --         1.071 au  O             1.00      1 D:z2            6
                        (      29.134 eV)
   146     146       --         1.071 au  O             1.00      1 D:x2-y2         6
                        (      29.134 eV)
   147     147       --         1.071 au  O             1.00      1 D:xy            6
                        (      29.134 eV)
   148     148       --         1.071 au  O             1.00      1 D:xz            6
                        (      29.134 eV)
   149     149       --         1.071 au  O             1.00      1 D:yz            6
                        (      29.134 eV)
   150     150       --         3.359 au  O             1.00      1 F:z3            6
                        (      91.410 eV)
   151     151       --         3.359 au  O             1.00      1 F:z             6
                        (      91.410 eV)
   152     152       --         3.359 au  O             1.00      1 F:xyz           6
                        (      91.410 eV)
   153     153       --         3.359 au  O             1.00      1 F:z2x           6
                        (      91.410 eV)
   154     154       --         3.359 au  O             1.00      1 F:z2y           6
                        (      91.410 eV)
   155     155       --         3.359 au  O             1.00      1 F:x             6
                        (      91.410 eV)
   156     156       --         3.359 au  O             1.00      1 F:y             6
                        (      91.410 eV)
   157     157      2.000     -18.941 au  O             1.00      1 S               7
                        (    -515.403 eV)
   158     158      2.000      -0.876 au  O             1.00      2 S               7
                        (     -23.838 eV)
   159     159       --         0.791 au  O             1.00      3 S               7
                        (      21.524 eV)
   160     160       --        13.422 au  O             1.00      4 S               7
                        (     365.226 eV)
   161     161       --       121.561 au  O             1.00      5 S               7
                        (    3307.838 eV)
   162     162      1.333      -0.331 au  O             1.00      1 P:x             7
                        (      -9.020 eV)
   163     163       --         0.347 au  O             1.00      2 P:x             7
                        (       9.437 eV)
   164     164       --         3.820 au  O             1.00      3 P:x             7
                        (     103.939 eV)
   165     165      1.333      -0.331 au  O             1.00      1 P:y             7
                        (      -9.020 eV)
   166     166       --         0.347 au  O             1.00      2 P:y             7
                        (       9.437 eV)
   167     167       --         3.820 au  O             1.00      3 P:y             7
                        (     103.939 eV)
   168     168      1.333      -0.331 au  O             1.00      1 P:z             7
[...]
                                    1.34%     2 P:z             4.589  0.00     2 C
                                   -1.20%     2 P:y             4.589  0.00     3 C
                                   -1.12%     3 S              21.524  0.00     7 O
       1.030  0.00    38 A         25.14%     1 P:x            -5.239  0.67     1 C
                                   24.13%     1 S              -6.532  1.00    15 H
                                   17.84%     2 S               2.394  0.00    15 H
                                   11.24%     2 P:x             4.589  0.00     1 C
                                   -8.91%     2 P:y             4.589  0.00     4 C
                                    6.14%     1 P:y            -5.239  0.67     4 C
                                    5.24%     1 P:x            -9.020  1.33     5 O
                                    4.74%     2 S               2.394  0.00    12 H
                                    4.15%     1 S              -6.532  1.00    13 H
                                   -4.13%     2 P:x             9.437  0.00     5 O
                                    3.74%     2 S               2.394  0.00    11 H
                                   -2.46%     2 P:z             4.589  0.00     4 C
                                   -1.99%     3 S              21.524  0.00     5 O
                                    1.98%     1 S              -6.532  1.00    12 H
                                    1.85%     2 P:z             4.589  0.00     1 C
                                    1.53%     2 P:x             4.589  0.00     3 C
                                    1.50%     2 S             -13.620  2.00     1 C
                                    1.45%     2 S             -23.838  2.00     5 O
                                   -1.30%     2 S               2.394  0.00    14 H
                                    1.28%     1 S              -6.532  1.00    14 H
                                   -1.26%     3 S              14.073  0.00     8 N
                                    1.16%     2 S               2.394  0.00    13 H
                                    1.09%     1 P:z            -5.239  0.67     3 C
                                   -1.02%     2 S             -13.620  2.00     2 C
                                    1.01%     1 P:x            11.051  0.00    10 H
       1.253  0.00    39 A         28.35%     1 S              -6.532  1.00    11 H
                                   17.20%     2 S               2.394  0.00    11 H
                                  -14.77%     2 P:z             4.589  0.00     1 C
                                   11.97%     1 S              -6.532  1.00     9 H
                                   -9.40%     2 P:y             4.589  0.00     1 C
                                    7.71%     1 P:x            -5.239  0.67     1 C
                                    5.83%     1 P:z            -5.239  0.67     1 C
                                    5.40%     1 P:z            -7.062  1.00     8 N
                                    4.82%     1 S              -6.532  1.00    14 H
                                    4.40%     1 P:y            -7.062  1.00     8 N
                                    3.98%     1 P:y            -9.020  1.33     7 O
                                    3.19%     1 P:z            -5.239  0.67     4 C
                                    3.14%     1 P:x            -5.239  0.67     3 C
                                    3.11%     2 S             -23.838  2.00     7 O
                                    2.96%     2 S             -18.450  2.00     8 N
                                    2.93%     2 S               2.394  0.00     9 H
                                    2.37%     1 S              -6.532  1.00    12 H
                                    2.37%     1 S              -6.532  1.00    15 H
                                    2.21%     1 P:y            -5.239  0.67     3 C
                                    2.09%     2 P:x             4.589  0.00     1 C
                                    1.98%     1 P:y            -5.239  0.67     2 C
                                    1.88%     1 P:y            -5.239  0.67     1 C
                                   -1.79%     2 S               2.394  0.00    15 H
                                   -1.68%     3 S              21.524  0.00     7 O
                                   -1.53%     3 S              14.073  0.00     8 N
                                   -1.53%     2 P:x             4.589  0.00     2 C
                                    1.45%     1 S              -6.532  1.00    10 H
                                    1.40%     3 S              40.869  0.00     9 H
                                   -1.31%     2 P:x             4.589  0.00     3 C
                                   -1.28%     2 S               2.394  0.00    14 H
                                    1.27%     2 P:z             4.589  0.00     4 C
                                    1.16%     1 P:x            -5.239  0.67     4 C
                                    1.12%     1 P:x            -9.020  1.33     5 O
       1.520  0.00    40 A         14.63%     1 S              -6.532  1.00    11 H
                                   12.07%     2 S               2.394  0.00    11 H
                                  -11.33%     2 P:y             4.589  0.00     1 C
                                    9.87%     2 S               2.394  0.00    12 H
                                    7.82%     2 P:x             4.589  0.00     3 C
                                    7.82%     2 S               2.394  0.00    10 H
                                    6.64%     1 S              -6.532  1.00    10 H
                                    5.35%     2 S               2.394  0.00    15 H
                                    5.22%     1 P:z            -7.062  1.00     8 N
                                    4.73%     1 P:y            -5.239  0.67     3 C
                                    4.50%     1 P:y            -7.062  1.00     8 N
                                    3.96%     2 S             -23.838  2.00     7 O
                                    3.73%     1 P:z            -5.239  0.67     3 C
                                   -3.73%     3 S              21.524  0.00     7 O
                                    3.58%     1 P:x            -5.239  0.67     3 C
                                   -3.50%     2 P:y             4.589  0.00     4 C
                                    3.26%     1 P:y            -5.239  0.67     4 C
                                    2.63%     2 S             -18.450  2.00     8 N
                                    2.48%     1 P:y            -9.020  1.33     7 O
                                    2.31%     1 S              -6.532  1.00    15 H
                                    2.28%     2 P:z             4.589  0.00     4 C
                                    1.99%     1 S              -6.532  1.00    12 H
                                    1.52%     1 P:x            -5.239  0.67     1 C
                                   -1.34%     2 P:y             4.589  0.00     3 C
                                    1.32%     2 P:x             4.589  0.00     1 C
                                    1.27%     1 S              -6.532  1.00    14 H
                                    1.26%     1 P:y            -5.239  0.67     1 C
                                    1.25%     3 S              40.869  0.00    11 H
                                   -1.25%     2 P:z             4.589  0.00     3 C
                                    1.20%     1 P:y            -5.239  0.67     2 C
                                   -1.06%     3 S              14.073  0.00     8 N
                                    1.01%     1 P:x            -9.020  1.33     7 O

 Energy gradients wrt nuclear displacements
 ==========================================

     Atom      Cartesian (a.u./angstrom)
                 X         Y         Z
 ----------------------------------------
     1 C     0.000019 -0.000017 -0.000074
     2 O    -0.000043 -0.000033 -0.000007
     3 C     0.000031 -0.000012 -0.000033
     4 O     0.000042 -0.000060 -0.000048
     5 C    -0.000015  0.000029 -0.000007
     6 O    -0.000014  0.000002  0.000102
     7 N    -0.000041  0.000085  0.000038
     8 C     0.000036  0.000070  0.000078
     9 H    -0.000034 -0.000024 -0.000087
    10 H     0.000023 -0.000070 -0.000068
    11 H    -0.000019 -0.000055 -0.000115
    12 H     0.000014 -0.000001  0.000030
    13 H    -0.000021  0.000034  0.000030
    14 H     0.000025  0.000002  0.000065
    15 H    -0.000002  0.000051  0.000095
 ----------------------------------------



 =======================================================================
 Electrostatic potential at the Nuclei due to electrons and other nuclei
 =======================================================================
  
         Atom                  Potential
         ----                  ---------
     1)   C                  14.72229605
     2)   O                  22.34275045
     3)   C                  14.65208325
     4)   O                  22.40806236
     5)   C                  14.70157916
     6)   O                  22.26368480
     7)   N                  18.36655199
     8)   C                  14.75321531
     9)   H                   1.08819502
    10)   H                   1.09135796
    11)   H                   1.09205070
    12)   H                   1.06503128
    13)   H                   1.08657621
    14)   H                   1.08094942
    15)   H                   1.09072691
 Mulliken charges used for AMS results%charges...


    =====================
     CALCULATION RESULTS
    =====================

Energy (hartree)            -3.04458097

Gradients (hartree/bohr)
  Index   Atom            d/dx            d/dy            d/dz
      1      C    0.0000099401   -0.0000088830   -0.0000391187
      2      O   -0.0000229356   -0.0000176921   -0.0000037326
      3      C    0.0000161402   -0.0000061337   -0.0000172098
      4      O    0.0000219903   -0.0000316071   -0.0000254953
      5      C   -0.0000080415    0.0000150922   -0.0000036123
      6      O   -0.0000071731    0.0000009125    0.0000540753
      7      N   -0.0000219319    0.0000449326    0.0000200532
      8      C    0.0000191276    0.0000370639    0.0000414485
      9      H   -0.0000182099   -0.0000128117   -0.0000460896
     10      H    0.0000123761   -0.0000370077   -0.0000361813
     11      H   -0.0000099618   -0.0000292948   -0.0000608423
     12      H    0.0000074086   -0.0000004645    0.0000160052
     13      H   -0.0000111340    0.0000178533    0.0000156539
     14      H    0.0000132360    0.0000011610    0.0000345787
     15      H   -0.0000008309    0.0000268791    0.0000504671


--------------
Atomic charges
--------------
  Index   Atom    Charge
      1      C    0.9696
      2      O   -0.5512
      3      C    0.6870
      4      O   -0.5536
      5      C    0.3597
      6      O   -0.2736
      7      N   -0.0700
      8      C    0.7334
      9      H   -0.2349
     10      H   -0.1835
     11      H   -0.1821
     12      H   -0.1616
     13      H   -0.1278
     14      H   -0.1997
     15      H   -0.2119


Dipole moment vector    (Debye):     1.83785144    0.99471669   -0.72792262
              magnitude (Debye):     2.21292353


-----------------------
Molecular orbitals info
-----------------------
n orbitals:              285
n spin:                    1

Note: only printing virtual orbitals with
      energy smaller than HOMO + 100. eV

HOMO (eV):              -5.6261
LUMO (eV):              -3.7059
HOMO-LUMO gap (eV):      1.9202

   Index   Energy (eV)    Occupation
     183       93.9638         0.000       
     182       93.6687         0.000       
     181       92.9780         0.000       
     180       92.5437         0.000       
     179       92.2538         0.000       
     178       92.1706         0.000       
     177       91.4875         0.000       
     176       90.6457         0.000       
     175       89.5885         0.000       
     174       89.3947         0.000       
     173       88.5547         0.000       
     172       87.9154         0.000       
     171       87.5282         0.000       
     170       86.0905         0.000       
     169       85.1456         0.000       
     168       83.6235         0.000       
     167       82.9674         0.000       
     166       81.1401         0.000       
     165       80.6476         0.000       
     164       79.8869         0.000       
     163       78.4143         0.000       
     162       77.8497         0.000       
     161       77.5562         0.000       
     160       77.2356         0.000       
     159       77.0639         0.000       
     158       76.6262         0.000       
     157       76.1848         0.000       
     156       76.0937         0.000       
     155       75.8558         0.000       
     154       75.1771         0.000       
     153       74.7381         0.000       
     152       73.2270         0.000       
     151       71.7684         0.000       
     150       69.9262         0.000       
     149       69.0996         0.000       
     148       67.4551         0.000       
     147       66.8463         0.000       
     146       65.7266         0.000       
     145       64.9703         0.000       
     144       63.6542         0.000       
     143       62.7185         0.000       
     142       61.5511         0.000       
     141       60.5125         0.000       
     140       60.3039         0.000       
     139       59.7450         0.000       
     138       58.8958         0.000       
     137       57.4235         0.000       
     136       56.7107         0.000       
     135       56.2604         0.000       
     134       55.5075         0.000       
     133       54.7044         0.000       
     132       54.1051         0.000       
     131       53.5924         0.000       
     130       52.9026         0.000       
     129       51.6122         0.000       
     128       50.6893         0.000       
     127       49.7123         0.000       
     126       49.3834         0.000       
     125       48.5435         0.000       
     124       48.3374         0.000       
     123       47.1710         0.000       
     122       46.3528         0.000       
     121       46.0164         0.000       
     120       45.5616         0.000       
     119       45.0114         0.000       
     118       44.7740         0.000       
     117       43.4206         0.000       
     116       42.2566         0.000       
     115       41.7773         0.000       
     114       41.5102         0.000       
     113       40.2030         0.000       
     112       39.4381         0.000       
     111       38.8001         0.000       
     110       37.9011         0.000       
     109       36.9846         0.000       
     108       36.1225         0.000       
     107       35.1095         0.000       
     106       34.8473         0.000       
     105       34.0069         0.000       
     104       33.2893         0.000       
     103       32.9005         0.000       
     102       32.1277         0.000       
     101       32.0134         0.000       
     100       31.2412         0.000       
      99       30.5791         0.000       
      98       30.0527         0.000       
      97       29.2929         0.000       
      96       29.2026         0.000       
      95       28.0983         0.000       
      94       27.7449         0.000       
      93       27.3596         0.000       
      92       26.9699         0.000       
      91       26.5468         0.000       
      90       25.8765         0.000       
      89       25.6440         0.000       
      88       25.0392         0.000       
      87       24.7386         0.000       
      86       24.3073         0.000       
      85       23.3340         0.000       
      84       22.6533         0.000       
      83       21.9979         0.000       
      82       21.5026         0.000       
      81       20.0279         0.000       
      80       19.7544         0.000       
      79       19.6019         0.000       
      78       19.0543         0.000       
      77       18.4817         0.000       
      76       17.6433         0.000       
      75       16.9513         0.000       
      74       16.3535         0.000       
      73       15.1853         0.000       
      72       13.6697         0.000       
      71       13.2709         0.000       
      70       13.1328         0.000       
      69       13.0786         0.000       
      68       12.6854         0.000       
      67       12.0523         0.000       
      66       11.1737         0.000       
      65       10.7090         0.000       
      64       10.4112         0.000       
      63       10.1669         0.000       
      62       10.1102         0.000       
      61        9.6489         0.000       
      60        9.4565         0.000       
      59        8.6334         0.000       
      58        8.5068         0.000       
      57        8.3517         0.000       
      56        7.7727         0.000       
      55        7.5968         0.000       
      54        7.1363         0.000       
      53        6.7254         0.000       
      52        6.3696         0.000       
      51        5.9689         0.000       
      50        5.4494         0.000       
      49        5.3560         0.000       
      48        4.6088         0.000       
      47        4.4307         0.000       
      46        4.0220         0.000       
      45        3.9109         0.000       
      44        3.4570         0.000       
      43        2.4741         0.000       
      42        1.9605         0.000       
      41        1.7719         0.000       
      40        1.5204         0.000       
      39        1.2527         0.000       
      38        1.0299         0.000       
      37        0.7896         0.000       
      36        0.4897         0.000       
      35        0.1771         0.000       
      34       -0.3769         0.000       
      33       -0.5433         0.000       
      32       -3.7059         0.000 < LUMO
      31       -5.6261         2.000 < HOMO
      30       -6.6952         2.000       
      29       -7.2574         2.000       
      28       -7.5177         2.000       
      27       -8.8097         2.000       
      26       -9.4088         2.000       
      25       -9.8210         2.000       
      24      -10.1965         2.000       
      23      -10.6324         2.000       
      22      -11.1327         2.000       
      21      -11.4372         2.000       
      20      -11.8158         2.000       
      19      -12.3493         2.000       
      18      -12.8791         2.000       
      17      -13.5529         2.000       
      16      -14.0748         2.000       
      15      -16.2244         2.000       
      14      -17.9489         2.000       
      13      -19.0495         2.000       
      12      -21.7703         2.000       
      11      -25.3852         2.000       
      10      -27.5414         2.000       
       9      -29.1635         2.000       
       8     -270.9212         2.000       
       7     -271.7229         2.000       
       6     -272.3505         2.000       
       5     -273.7095         2.000       
       4     -383.4152         2.000       
       3     -511.2868         2.000       
       2     -512.9979         2.000       
       1     -515.2019         2.000       

AMS application finished. Exiting.
NORMAL TERMINATION
     Total cpu time:     532.06
  Total system time:       2.10
 Total elapsed time:     537.09
NORMAL TERMINATION
