
 *******************************************************************************
 *                                                                             *
 *  --------------------------------                                           *
 *   Amsterdam Modeling Suite (AMS)              2026.103                      *
 *  --------------------------------                                           *
 *                                               r260501 2026-05-01 873454b5   *
 *                                                                             *
 *                                                                             *
 *                              =================                              *
 *                              |               |                              *
 *                              |     A M S     |                              *
 *                              |               |                              *
 *                              =================                              *
 *                                                                             *
 *                                                                             *
 *   Online information and documentation:  https://www.scm.com/support/       *
 *   E-mail:  support@scm.com   info@scm.com                                   *
 *                                                                             *
 *   Scientific publications using AMS results must be properly referenced     *
 *   See the User Manuals (or the web site) for recommended citations          *
 *   The terms and conditions of the End User License Agreement apply to       *
 *   the use of AMS, https://www.scm.com/license-terms/                        *
 *                                                                             *
 **********************  x86_64_linux_intel / intelmpi  ************************
 
 Licensed to: Jong-June Jeon / University of Seoul 2026-06-02 13:44:15
 SCM User ID: u30731
  
 AMS 2026.103  RunTime: Jun03-2026 17:55:08  ShM Nodes: 1  Procs: 1

 AMS jobname: c3_eda
 AMS jobid  : 505623634

 Start   directory: /gpfs/home1/yeseo1ee/projects/eda-asm-prediction/ADF_800/adf_outputs/batch_003/qmrxn20_e2_B_A_A_A_A_B/
 Results directory: /gpfs/home1/yeseo1ee/projects/eda-asm-prediction/ADF_800/adf_outputs/batch_003/qmrxn20_e2_B_A_A_A_A_B/c3_eda.results/
 Scratch directory: /tmp/amstmp_c3_eda_kid0.505623634/

 RNG seed: 1856295603 445349141 1126696828 -266094880 1710898440 1347937405 605571333 -1518192190



                      ************************************************************************
                      *  ADF 2026.103  RunTime: Jun03-2026 17:55:08  ShM Nodes: 1  Procs: 1  *
                      ************************************************************************
  

       ****************************
       * SINGLE POINT CALCULATION *
       ****************************

--------
Geometry
--------
Formula: C2H4F2NO2
Atoms
  Index Symbol   x (angstrom)   y (angstrom)   z (angstrom)
      1      F    -2.51399137     0.54130928     1.56764112 adf.f=fA
      2      H    -1.42034433     0.16381941     1.47518842 adf.f=fA
      3      C    -0.16175515    -0.01793139    -0.31717405 adf.f=fB
      4      C    -0.09046274    -0.06666383     1.13525180 adf.f=fB
      5      F     1.06387197    -0.06189528    -1.04849991 adf.f=fB
      6      H    -0.70819391     0.84098786    -0.70240886 adf.f=fB
      7      H     0.40294907    -0.97977211     1.47424216 adf.f=fB
      8      H     0.43627223     0.82341739     1.49483213 adf.f=fB
      9      N    -0.89563441    -1.21822182    -0.87846489 adf.f=fB
     10      O    -1.79433658    -1.00580733    -1.69386424 adf.f=fB
     11      O    -0.52177479    -2.33462219    -0.52725368 adf.f=fB

Total System Charge             -1.00000


----------------
ADF Engine Input
----------------
 
   Basis
     Type TZ2P
     Core None
   End
   XC
     GGA BLYP
     Dispersion GRIMME3 BJDAMP
   End
   Symmetry NOSYM
   NumericalQuality Normal
   Unrestricted No
   SCF
     Iterations 200
     Converge 1.0e-6
   End
   fragments
     fA c1_fragA_ts.results/adf.rkf
     fB c2_fragB_ts.results/adf.rkf
   end
   etsnocv
     enocv 0.05
     ekmin 0.5
   end
   print etslowdin
   Save TAPE21
 

 Title: *** (NO TITLE) ***

 *** adf ***



 ===========================
 A T T A C H E D   F I L E S
 ===========================
  



 ===============================
 M O D E L   P A R A M E T E R S
 ===============================
  
 DENSITY FUNCTIONAL POTENTIAL (scf)
    LDA:                               Exchange only                           == Not Default ==
    Gradient Corrections:              Becke88 LYP                             == Not Default ==

 SPIN  (restricted / unrestr.)
    Molecule:                          Restricted                               
    Fragments:                         Restricted                               

 OTHER ASPECTS
    Relativistic Corrections:          scalar (ZORA,MAPA)                       

    Nuclear Charge Density Model:      Point Charge Nuclei                      
    Core Treatment:                    Frozen Orbital(s)                        

    Hyperfine or Zeeman Interaction:   ---                                      

 Settings for Grimme D3 dispersion correction

      damping                        BJ
      s6                          1.000
      s8                          2.700
      a1                          0.430
      a2                          4.236

 Other (technical) parameters

      alpha                      14.000
      version                         4
 


 Fragment File(s)
 ----------------
 fA:
         file : c1_fragA_ts.results/adf.rkf
         jobid: 1263776408
         title: *** adf ***
 fB:
         file : c2_fragB_ts.results/adf.rkf
         jobid: 645076758
         title: *** adf ***



 ===============
 G E O M E T R Y  ***  3D  Molecule  ***
 ===============
  

 ATOMS
 =====                            X Y Z                    CHARGE
                                (Angstrom)             Nucl     +Core       At.Mass
                       --------------------------    ----------------       -------
    1  F              -2.5140    0.5413    1.5676      9.00      9.00       18.9984
    2  H              -1.4203    0.1638    1.4752      1.00      1.00        1.0078
    3  C              -0.1618   -0.0179   -0.3172      6.00      6.00       12.0000
    4  C              -0.0905   -0.0667    1.1353      6.00      6.00       12.0000
    5  F               1.0639   -0.0619   -1.0485      9.00      9.00       18.9984
    6  H              -0.7082    0.8410   -0.7024      1.00      1.00        1.0078
    7  H               0.4029   -0.9798    1.4742      1.00      1.00        1.0078
    8  H               0.4363    0.8234    1.4948      1.00      1.00        1.0078
    9  N              -0.8956   -1.2182   -0.8785      7.00      7.00       14.0031
   10  O              -1.7943   -1.0058   -1.6939      8.00      8.00       15.9949
   11  O              -0.5218   -2.3346   -0.5273      8.00      8.00       15.9949


 FRAGMENTS
 =========                                     Atoms in this Fragment     Cart. coord.s (Angstrom)
                                               -------------------------------------------------------
    1  fA                                                1  F           -2.5140    0.5413    1.5676
                                                         2  H           -1.4203    0.1638    1.4752
    2  fB                                                3  C           -0.1618   -0.0179   -0.3172
                                                         4  C           -0.0905   -0.0667    1.1353
                                                         5  F            1.0639   -0.0619   -1.0485
                                                         6  H           -0.7082    0.8410   -0.7024
                                                         7  H            0.4029   -0.9798    1.4742
                                                         8  H            0.4363    0.8234    1.4948
                                                         9  N           -0.8956   -1.2182   -0.8785
                                                        10  O           -1.7943   -1.0058   -1.6939
                                                        11  O           -0.5218   -2.3346   -0.5273


 Interatomic Distance Matrix (Angstrom)
 --------------------------------------

   1)     0.000
   2)     1.161   0.000
   3)     3.066   2.198   0.000
   4)     2.536   1.392   1.455   0.000
   5)     4.473   3.548   1.428   2.470   0.000
   6)     2.916   2.389   1.088   2.141   2.019   0.000
   7)     3.291   2.152   2.110   1.092   2.765   3.048   0.000
   8)     2.965   1.970   2.085   1.095   2.765   2.477   1.804   0.000
   9)     3.420   2.779   1.515   2.455   2.282   2.075   2.698   3.402   0.000
  10)     3.681   3.399   2.353   3.434   3.078   2.361   3.856   4.300   1.232   0.000
  11)     4.078   3.326   2.354   2.845   2.820   3.186   2.588   3.870   1.229   2.179
          0.000

 Min. Distance =    1.0885
 Max. Distance =    4.4732



 =====================================
 S Y M M E T R Y ,   E L E C T R O N S
 =====================================
  
 Symmetry: NOSYM

 Irreducible Representations, including subspecies
 -------------------------------------------------
 A


 Configuration of Valence Electrons
 ==================================
 ( determined in the SCF procedure )

 Total:   58

 Net Charge: -1 (Nuclei minus Electrons)

 Aufbau principle for MO occupations will be applied through SCF cycle no.     100
 Thereafter, the program will assign electrons to MOs that are spatially
 similar to the occupied MOs in a "reference" cycle ("KeepOrbitals").
 The reference cycle is always the PREVIOUS cycle: it will evolve with
 the SCF procedure.
 ***************************************************************************************************



                                      ****************************************
                                      *  B U I L D : (Fragments, Functions)  *
                                      ****************************************
  

 The individual fragments are copies of the corresponding 'Master' fragments defined on the fragment files.
 However, they may have been rotated (and translated) with respect to the Master. The local coordinate axes
 of each fragment (which define for instance the spatial orientation in the current molecule of a fragment
 P:x orbital) are not necessarily those of the molecule.
 The local frame (if different from the molecular one) is printed to enable an interpretation of the expan-
 sion of an MO in Fragment Orbitals.



                                              ************************
                                              *  Fragment Type : fA  *
                                              ************************
  

 Fragment no.    1   (in the list of all fragments)
 -----------------
 The local coordinate frame is identical to the molecular frame.

 Check Atomic Coordinates:

                  Master (on file)          After Computed Tranformation               As specified on Input
           ----------------------------     ----------------------------     ---------------------------------
     1)    -2.51399   0.54131   1.56764     -2.51399   0.54131   1.56764       1  -2.51399   0.54131   1.56764
     2)    -1.42034   0.16382   1.47519     -1.42034   0.16382   1.47519       2  -1.42034   0.16382   1.47519



                                              ************************
                                              *  Fragment Type : fB  *
                                              ************************
  

 Fragment no.    2   (in the list of all fragments)
 -----------------
 The local coordinate frame is identical to the molecular frame.

 Check Atomic Coordinates:

                  Master (on file)          After Computed Tranformation               As specified on Input
           ----------------------------     ----------------------------     ---------------------------------
     1)    -0.16176  -0.01793  -0.31717     -0.16176  -0.01793  -0.31717       3  -0.16176  -0.01793  -0.31717
     2)    -0.09046  -0.06666   1.13525     -0.09046  -0.06666   1.13525       4  -0.09046  -0.06666   1.13525
     3)     1.06387  -0.06190  -1.04850      1.06387  -0.06190  -1.04850       5   1.06387  -0.06190  -1.04850
     4)    -0.70819   0.84099  -0.70241     -0.70819   0.84099  -0.70241       6  -0.70819   0.84099  -0.70241
     5)     0.40295  -0.97977   1.47424      0.40295  -0.97977   1.47424       7   0.40295  -0.97977   1.47424
     6)     0.43627   0.82342   1.49483      0.43627   0.82342   1.49483       8   0.43627   0.82342   1.49483
     7)    -0.89563  -1.21822  -0.87846     -0.89563  -1.21822  -0.87846       9  -0.89563  -1.21822  -0.87846
     8)    -1.79434  -1.00581  -1.69386     -1.79434  -1.00581  -1.69386      10  -1.79434  -1.00581  -1.69386
     9)    -0.52177  -2.33462  -0.52725     -0.52177  -2.33462  -0.52725      11  -0.52177  -2.33462  -0.52725



 =======
 S F O s  ***  (Symmetrized Fragment Orbitals)  ***
 =======
  
 SFOs are linear combinations of (valence) Fragment Orbitals (FOs), such that the SFOs transform as the
 irreducible representations of the (molecular) symmetry group. Each SFO is therefore characterized by
 an irrep of the molecule and by a few (or only one) generating FOs.
 The SFOs constitute a symmetry-adapted basis for the Fock matrix. The MO eigenvector coefficients in
 this basis provide a direct interpretation of the MOs in terms of Frontier Orbital Theory.

 The SFOs are combined with auxiliary Core Functions (CFs) to ensure orthogonalization on the (frozen)
 Core Orbitals (COs). The Core-orthogonalized SFOs (CSFOs) constitute the true Fock basis.

 The FOs, and hence also the (C)SFOs are combinations of the elementary basis functions (BAS). The basis
 functions that participate in the description of the SFOs depend on the irrep. The indices of the
 involved functions are printed below for each irrep.
 (The complete list of primitive basis functions is printed in another section)

 Total nr. of (C)SFOs (summation over all irreps) :   226

 NOTE: a (C)SFO that is defined as a combination of more than one FO is usually NOT normalized.



                                       === A ===
 Nr. of SFOs :  226
 Cartesian basis functions that participate in this irrep (total number =   258) :
      1     2     3     4     5     6     9    12     7    10
     13     8    11    14    15    16    17    18    19    20
     21    22    23    24    25    26    27    28    29    30
     31    32    33    34    35    36    37    38    39    40
     41    42    43    44    45    46    47    48    51    54
     49    52    55    50    53    56    57    58    59    60
     61    62    63    64    65    66    67    68    69    70
     71    72    73    74    75    76    77    78    81    84
     79    82    85    80    83    86    87    88    89    90
     91    92    93    94    95    96    97    98    99   100
    101   102   103   104   105   106   107   108   111   114
    109   112   115   110   113   116   117   118   119   120
    121   122   123   124   125   126   127   128   129   130
    131   132   133   134   135   136   137   138   139   140
    141   142   143   144   145   146   147   148   149   150
    151   152   153   154   155   156   157   158   159   160
    161   162   163   164   165   166   167   168   169   170
    171   172   173   174   177   180   175   178   181   176
    179   182   183   184   185   186   187   188   189   190
    191   192   193   194   195   196   197   198   199   200
    201   202   203   204   207   210   205   208   211   206
    209   212   213   214   215   216   217   218   219   220
    221   222   223   224   225   226   227   228   229   230
    231   232   233   234   237   240   235   238   241   236
    239   242   243   244   245   246   247   248   249   250
    251   252   253   254   255   256   257   258

    SFO  (index         Fragment          Generating    Expansion in Fragment Orbitals
  indx  incl.CFs)   Occup   Orb.Energy   FragmentType  Coeff.   Orbital     on Fragment
 --------------------------------------------------------------------------------------
     1       1      2.000     -24.003 au  fA            1.00      1 A               1
                        (    -653.142 eV)
     2       2      2.000      -0.755 au  fA            1.00      2 A               1
                        (     -20.533 eV)
     3       3      2.000      -0.156 au  fA            1.00      3 A               1
                        (      -4.249 eV)
     4       4      2.000      -0.054 au  fA            1.00      4 A               1
                        (      -1.468 eV)
     5       5      2.000      -0.054 au  fA            1.00      5 A               1
                        (      -1.467 eV)
     6       6      1.000       0.153 au  fA            1.00      6 A               1
                        (       4.167 eV)
     7       7       --         0.251 au  fA            1.00      7 A               1
                        (       6.835 eV)
     8       8       --         0.360 au  fA            1.00      8 A               1
                        (       9.805 eV)
     9       9       --         0.644 au  fA            1.00      9 A               1
                        (      17.523 eV)
    10      10       --         0.644 au  fA            1.00     10 A               1
                        (      17.523 eV)
    11      11       --         0.880 au  fA            1.00     11 A               1
                        (      23.957 eV)
    12      12       --         0.880 au  fA            1.00     12 A               1
                        (      23.957 eV)
    13      13       --         0.885 au  fA            1.00     13 A               1
                        (      24.082 eV)
    14      14       --         1.179 au  fA            1.00     14 A               1
                        (      32.078 eV)
    15      15       --         1.351 au  fA            1.00     15 A               1
                        (      36.776 eV)
    16      16       --         1.418 au  fA            1.00     16 A               1
                        (      38.584 eV)
    17      17       --         1.418 au  fA            1.00     17 A               1
                        (      38.585 eV)
    18      18       --         1.752 au  fA            1.00     18 A               1
                        (      47.673 eV)
    19      19       --         1.752 au  fA            1.00     19 A               1
                        (      47.673 eV)
    20      20       --         2.138 au  fA            1.00     20 A               1
                        (      58.167 eV)
    21      21       --         2.842 au  fA            1.00     21 A               1
                        (      77.325 eV)
    22      22       --         2.842 au  fA            1.00     22 A               1
                        (      77.330 eV)
    23      23       --         3.209 au  fA            1.00     23 A               1
                        (      87.321 eV)
    24      24       --         3.405 au  fA            1.00     24 A               1
                        (      92.643 eV)
    25      25       --         3.405 au  fA            1.00     25 A               1
                        (      92.646 eV)
    26      26       --         3.754 au  fA            1.00     26 A               1
                        (     102.146 eV)
    27      27       --         3.754 au  fA            1.00     27 A               1
                        (     102.147 eV)
    28      28       --         4.199 au  fA            1.00     28 A               1
                        (     114.266 eV)
    29      29       --         4.199 au  fA            1.00     29 A               1
                        (     114.268 eV)
    30      30       --         4.248 au  fA            1.00     30 A               1
                        (     115.592 eV)
    31      31       --         4.435 au  fA            1.00     31 A               1
                        (     120.681 eV)
    32      32       --         4.860 au  fA            1.00     32 A               1
                        (     132.248 eV)
    33      33       --         4.860 au  fA            1.00     33 A               1
                        (     132.250 eV)
    34      34       --         5.482 au  fA            1.00     34 A               1
                        (     149.180 eV)
    35      35       --         5.482 au  fA            1.00     35 A               1
                        (     149.182 eV)
    36      36       --         6.221 au  fA            1.00     36 A               1
                        (     169.269 eV)
    37      37       --        52.573 au  fA            1.00     37 A               1
                        (    1430.574 eV)
    38      38      2.000     -24.341 au  fB            1.00      1 A               2
                        (    -662.359 eV)
    39      39      2.000     -18.853 au  fB            1.00      2 A               2
                        (    -513.028 eV)
    40      40      2.000     -18.852 au  fB            1.00      3 A               2
                        (    -512.998 eV)
    41      41      2.000     -14.261 au  fB            1.00      4 A               2
                        (    -388.063 eV)
    42      42      2.000     -10.079 au  fB            1.00      5 A               2
                        (    -274.250 eV)
    43      43      2.000      -9.993 au  fB            1.00      6 A               2
                        (    -271.935 eV)
    44      44      2.000      -1.156 au  fB            1.00      7 A               2
                        (     -31.450 eV)
    45      45      2.000      -1.123 au  fB            1.00      8 A               2
                        (     -30.553 eV)
    46      46      2.000      -0.988 au  fB            1.00      9 A               2
                        (     -26.878 eV)
    47      47      2.000      -0.779 au  fB            1.00     10 A               2
                        (     -21.210 eV)
    48      48      2.000      -0.666 au  fB            1.00     11 A               2
                        (     -18.120 eV)
    49      49      2.000      -0.563 au  fB            1.00     12 A               2
                        (     -15.327 eV)
    50      50      2.000      -0.517 au  fB            1.00     13 A               2
                        (     -14.071 eV)
    51      51      2.000      -0.516 au  fB            1.00     14 A               2
                        (     -14.042 eV)
    52      52      2.000      -0.488 au  fB            1.00     15 A               2
                        (     -13.292 eV)
    53      53      2.000      -0.466 au  fB            1.00     16 A               2
                        (     -12.688 eV)
    54      54      2.000      -0.439 au  fB            1.00     17 A               2
                        (     -11.956 eV)
    55      55      2.000      -0.401 au  fB            1.00     18 A               2
                        (     -10.921 eV)
    56      56      2.000      -0.383 au  fB            1.00     19 A               2
                        (     -10.421 eV)
    57      57      2.000      -0.347 au  fB            1.00     20 A               2
                        (      -9.440 eV)
    58      58      2.000      -0.301 au  fB            1.00     21 A               2
                        (      -8.191 eV)
    59      59      2.000      -0.283 au  fB            1.00     22 A               2
                        (      -7.688 eV)
    60      60      2.000      -0.268 au  fB            1.00     23 A               2
                        (      -7.297 eV)
    61      61      1.000      -0.243 au  fB            1.00     24 A               2
                        (      -6.605 eV)
    62      62       --        -0.134 au  fB            1.00     25 A               2
                        (      -3.636 eV)
    63      63       --        -0.013 au  fB            1.00     26 A               2
                        (      -0.360 eV)
    64      64       --         0.013 au  fB            1.00     27 A               2
                        (       0.353 eV)
    65      65       --         0.025 au  fB            1.00     28 A               2
                        (       0.674 eV)
    66      66       --         0.036 au  fB            1.00     29 A               2
                        (       0.991 eV)
    67      67       --         0.061 au  fB            1.00     30 A               2
                        (       1.646 eV)
    68      68       --         0.073 au  fB            1.00     31 A               2
                        (       1.985 eV)
    69      69       --         0.118 au  fB            1.00     32 A               2
                        (       3.211 eV)
    70      70       --         0.123 au  fB            1.00     33 A               2
                        (       3.355 eV)
    71      71       --         0.151 au  fB            1.00     34 A               2
                        (       4.096 eV)
    72      72       --         0.177 au  fB            1.00     35 A               2
                        (       4.815 eV)
    73      73       --         0.184 au  fB            1.00     36 A               2
                        (       5.003 eV)
    74      74       --         0.229 au  fB            1.00     37 A               2
                        (       6.232 eV)
    75      75       --         0.236 au  fB            1.00     38 A               2
                        (       6.413 eV)
    76      76       --         0.251 au  fB            1.00     39 A               2
                        (       6.826 eV)
    77      77       --         0.276 au  fB            1.00     40 A               2
                        (       7.520 eV)
    78      78       --         0.314 au  fB            1.00     41 A               2
                        (       8.536 eV)
    79      79       --         0.345 au  fB            1.00     42 A               2
                        (       9.379 eV)
    80      80       --         0.352 au  fB            1.00     43 A               2
                        (       9.581 eV)
    81      81       --         0.366 au  fB            1.00     44 A               2
                        (       9.946 eV)
    82      82       --         0.372 au  fB            1.00     45 A               2
                        (      10.133 eV)
    83      83       --         0.401 au  fB            1.00     46 A               2
                        (      10.913 eV)
    84      84       --         0.405 au  fB            1.00     47 A               2
                        (      11.028 eV)
    85      85       --         0.476 au  fB            1.00     48 A               2
                        (      12.945 eV)
    86      86       --         0.482 au  fB            1.00     49 A               2
                        (      13.124 eV)
    87      87       --         0.513 au  fB            1.00     50 A               2
                        (      13.958 eV)
    88      88       --         0.573 au  fB            1.00     51 A               2
                        (      15.579 eV)
    89      89       --         0.599 au  fB            1.00     52 A               2
                        (      16.310 eV)
    90      90       --         0.640 au  fB            1.00     53 A               2
                        (      17.407 eV)
    91      91       --         0.658 au  fB            1.00     54 A               2
                        (      17.904 eV)
    92      92       --         0.726 au  fB            1.00     55 A               2
                        (      19.757 eV)
    93      93       --         0.736 au  fB            1.00     56 A               2
                        (      20.032 eV)
    94      94       --         0.755 au  fB            1.00     57 A               2
                        (      20.539 eV)
    95      95       --         0.782 au  fB            1.00     58 A               2
                        (      21.274 eV)
    96      96       --         0.799 au  fB            1.00     59 A               2
                        (      21.747 eV)
    97      97       --         0.868 au  fB            1.00     60 A               2
                        (      23.623 eV)
    98      98       --         0.882 au  fB            1.00     61 A               2
                        (      24.008 eV)
    99      99       --         0.894 au  fB            1.00     62 A               2
                        (      24.330 eV)
   100     100       --         0.957 au  fB            1.00     63 A               2
                        (      26.047 eV)
   101     101       --         0.976 au  fB            1.00     64 A               2
                        (      26.559 eV)
   102     102       --         1.038 au  fB            1.00     65 A               2
                        (      28.233 eV)
   103     103       --         1.098 au  fB            1.00     66 A               2
                        (      29.884 eV)
   104     104       --         1.116 au  fB            1.00     67 A               2
                        (      30.368 eV)
   105     105       --         1.137 au  fB            1.00     68 A               2
                        (      30.932 eV)
   106     106       --         1.176 au  fB            1.00     69 A               2
                        (      31.987 eV)
   107     107       --         1.192 au  fB            1.00     70 A               2
                        (      32.427 eV)
   108     108       --         1.229 au  fB            1.00     71 A               2
                        (      33.442 eV)
   109     109       --         1.237 au  fB            1.00     72 A               2
                        (      33.655 eV)
   110     110       --         1.245 au  fB            1.00     73 A               2
                        (      33.881 eV)
   111     111       --         1.273 au  fB            1.00     74 A               2
                        (      34.628 eV)
   112     112       --         1.304 au  fB            1.00     75 A               2
                        (      35.477 eV)
   113     113       --         1.359 au  fB            1.00     76 A               2
                        (      36.977 eV)
   114     114       --         1.407 au  fB            1.00     77 A               2
                        (      38.273 eV)
   115     115       --         1.465 au  fB            1.00     78 A               2
                        (      39.855 eV)
   116     116       --         1.516 au  fB            1.00     79 A               2
                        (      41.254 eV)
   117     117       --         1.555 au  fB            1.00     80 A               2
                        (      42.317 eV)
   118     118       --         1.619 au  fB            1.00     81 A               2
                        (      44.062 eV)
   119     119       --         1.648 au  fB            1.00     82 A               2
                        (      44.852 eV)
   120     120       --         1.710 au  fB            1.00     83 A               2
                        (      46.522 eV)
   121     121       --         1.776 au  fB            1.00     84 A               2
                        (      48.332 eV)
   122     122       --         1.805 au  fB            1.00     85 A               2
                        (      49.116 eV)
   123     123       --         1.836 au  fB            1.00     86 A               2
                        (      49.958 eV)
   124     124       --         1.872 au  fB            1.00     87 A               2
                        (      50.939 eV)
   125     125       --         1.911 au  fB            1.00     88 A               2
                        (      51.989 eV)
   126     126       --         1.939 au  fB            1.00     89 A               2
                        (      52.772 eV)
   127     127       --         1.957 au  fB            1.00     90 A               2
                        (      53.258 eV)
   128     128       --         2.035 au  fB            1.00     91 A               2
                        (      55.373 eV)
   129     129       --         2.053 au  fB            1.00     92 A               2
                        (      55.878 eV)
   130     130       --         2.094 au  fB            1.00     93 A               2
                        (      56.976 eV)
   131     131       --         2.122 au  fB            1.00     94 A               2
                        (      57.754 eV)
   132     132       --         2.168 au  fB            1.00     95 A               2
                        (      58.995 eV)
   133     133       --         2.215 au  fB            1.00     96 A               2
                        (      60.278 eV)
   134     134       --         2.271 au  fB            1.00     97 A               2
                        (      61.796 eV)
   135     135       --         2.293 au  fB            1.00     98 A               2
                        (      62.409 eV)
   136     136       --         2.327 au  fB            1.00     99 A               2
                        (      63.318 eV)
   137     137       --         2.445 au  fB            1.00    100 A               2
                        (      66.540 eV)
   138     138       --         2.458 au  fB            1.00    101 A               2
                        (      66.896 eV)
   139     139       --         2.588 au  fB            1.00    102 A               2
                        (      70.436 eV)
   140     140       --         2.616 au  fB            1.00    103 A               2
                        (      71.193 eV)
   141     141       --         2.775 au  fB            1.00    104 A               2
                        (      75.523 eV)
   142     142       --         2.787 au  fB            1.00    105 A               2
                        (      75.842 eV)
   143     143       --         2.797 au  fB            1.00    106 A               2
                        (      76.120 eV)
   144     144       --         2.856 au  fB            1.00    107 A               2
                        (      77.716 eV)
   145     145       --         2.883 au  fB            1.00    108 A               2
                        (      78.446 eV)
   146     146       --         2.928 au  fB            1.00    109 A               2
                        (      79.666 eV)
   147     147       --         2.999 au  fB            1.00    110 A               2
                        (      81.620 eV)
   148     148       --         3.186 au  fB            1.00    111 A               2
                        (      86.708 eV)
   149     149       --         3.224 au  fB            1.00    112 A               2
                        (      87.725 eV)
   150     150       --         3.281 au  fB            1.00    113 A               2
                        (      89.268 eV)
   151     151       --         3.294 au  fB            1.00    114 A               2
                        (      89.633 eV)
   152     152       --         3.323 au  fB            1.00    115 A               2
                        (      90.416 eV)
   153     153       --         3.348 au  fB            1.00    116 A               2
                        (      91.095 eV)
   154     154       --         3.355 au  fB            1.00    117 A               2
                        (      91.302 eV)
   155     155       --         3.392 au  fB            1.00    118 A               2
                        (      92.307 eV)
   156     156       --         3.403 au  fB            1.00    119 A               2
                        (      92.592 eV)
   157     157       --         3.438 au  fB            1.00    120 A               2
                        (      93.552 eV)
   158     158       --         3.469 au  fB            1.00    121 A               2
                        (      94.397 eV)
   159     159       --         3.491 au  fB            1.00    122 A               2
                        (      95.007 eV)
   160     160       --         3.510 au  fB            1.00    123 A               2
                        (      95.508 eV)
   161     161       --         3.534 au  fB            1.00    124 A               2
                        (      96.161 eV)
   162     162       --         3.551 au  fB            1.00    125 A               2
                        (      96.630 eV)
   163     163       --         3.578 au  fB            1.00    126 A               2
                        (      97.360 eV)
   164     164       --         3.605 au  fB            1.00    127 A               2
                        (      98.109 eV)
   165     165       --         3.642 au  fB            1.00    128 A               2
                        (      99.092 eV)
   166     166       --         3.681 au  fB            1.00    129 A               2
                        (     100.164 eV)
   167     167       --         3.723 au  fB            1.00    130 A               2
                        (     101.310 eV)
   168     168       --         3.880 au  fB            1.00    131 A               2
                        (     105.592 eV)
   169     169       --         3.902 au  fB            1.00    132 A               2
                        (     106.187 eV)
   170     170       --         3.920 au  fB            1.00    133 A               2
                        (     106.657 eV)
   171     171       --         3.934 au  fB            1.00    134 A               2
                        (     107.059 eV)
   172     172       --         3.965 au  fB            1.00    135 A               2
                        (     107.902 eV)
   173     173       --         4.009 au  fB            1.00    136 A               2
                        (     109.103 eV)
   174     174       --         4.021 au  fB            1.00    137 A               2
                        (     109.426 eV)
   175     175       --         4.071 au  fB            1.00    138 A               2
                        (     110.785 eV)
   176     176       --         4.107 au  fB            1.00    139 A               2
                        (     111.754 eV)
   177     177       --         4.255 au  fB            1.00    140 A               2
                        (     115.795 eV)
   178     178       --         4.305 au  fB            1.00    141 A               2
                        (     117.154 eV)
   179     179       --         4.321 au  fB            1.00    142 A               2
                        (     117.583 eV)
   180     180       --         4.379 au  fB            1.00    143 A               2
                        (     119.153 eV)
   181     181       --         4.419 au  fB            1.00    144 A               2
                        (     120.237 eV)
   182     182       --         4.518 au  fB            1.00    145 A               2
                        (     122.950 eV)
   183     183       --         4.546 au  fB            1.00    146 A               2
                        (     123.695 eV)
   184     184       --         4.560 au  fB            1.00    147 A               2
                        (     124.071 eV)
   185     185       --         4.684 au  fB            1.00    148 A               2
                        (     127.453 eV)
   186     186       --         4.704 au  fB            1.00    149 A               2
                        (     128.010 eV)
   187     187       --         4.757 au  fB            1.00    150 A               2
                        (     129.452 eV)
   188     188       --         4.789 au  fB            1.00    151 A               2
                        (     130.303 eV)
   189     189       --         4.864 au  fB            1.00    152 A               2
                        (     132.354 eV)
   190     190       --         4.962 au  fB            1.00    153 A               2
                        (     135.020 eV)
   191     191       --         5.029 au  fB            1.00    154 A               2
                        (     136.840 eV)
   192     192       --         5.110 au  fB            1.00    155 A               2
                        (     139.040 eV)
   193     193       --         5.173 au  fB            1.00    156 A               2
                        (     140.760 eV)
   194     194       --         5.339 au  fB            1.00    157 A               2
                        (     145.291 eV)
   195     195       --         5.435 au  fB            1.00    158 A               2
                        (     147.898 eV)
   196     196       --         5.490 au  fB            1.00    159 A               2
                        (     149.398 eV)
   197     197       --         5.535 au  fB            1.00    160 A               2
                        (     150.616 eV)
   198     198       --         5.720 au  fB            1.00    161 A               2
                        (     155.650 eV)
   199     199       --         5.877 au  fB            1.00    162 A               2
                        (     159.932 eV)
   200     200       --         6.003 au  fB            1.00    163 A               2
                        (     163.345 eV)
   201     201       --         6.093 au  fB            1.00    164 A               2
                        (     165.787 eV)
   202     202       --         6.190 au  fB            1.00    165 A               2
                        (     168.426 eV)
   203     203       --         6.282 au  fB            1.00    166 A               2
                        (     170.948 eV)
   204     204       --         6.331 au  fB            1.00    167 A               2
                        (     172.276 eV)
   205     205       --         6.445 au  fB            1.00    168 A               2
                        (     175.383 eV)
   206     206       --         6.495 au  fB            1.00    169 A               2
                        (     176.743 eV)
   207     207       --         6.533 au  fB            1.00    170 A               2
                        (     177.762 eV)
   208     208       --         6.653 au  fB            1.00    171 A               2
                        (     181.027 eV)
   209     209       --         6.701 au  fB            1.00    172 A               2
                        (     182.333 eV)
   210     210       --         6.882 au  fB            1.00    173 A               2
                        (     187.260 eV)
   211     211       --         7.062 au  fB            1.00    174 A               2
                        (     192.165 eV)
   212     212       --         7.296 au  fB            1.00    175 A               2
                        (     198.526 eV)
   213     213       --         7.440 au  fB            1.00    176 A               2
                        (     202.455 eV)
   214     214       --         7.570 au  fB            1.00    177 A               2
                        (     206.003 eV)
   215     215       --         7.848 au  fB            1.00    178 A               2
                        (     213.561 eV)
   216     216       --         9.087 au  fB            1.00    179 A               2
                        (     247.270 eV)
   217     217       --         9.292 au  fB            1.00    180 A               2
                        (     252.859 eV)
   218     218       --        10.460 au  fB            1.00    181 A               2
                        (     284.621 eV)
   219     219       --        15.612 au  fB            1.00    182 A               2
                        (     424.820 eV)
   220     220       --        15.817 au  fB            1.00    183 A               2
                        (     430.413 eV)
   221     221       --        52.394 au  fB            1.00    184 A               2
                        (    1425.713 eV)
   222     222       --        54.027 au  fB            1.00    185 A               2
                        (    1470.144 eV)
   223     223       --        57.823 au  fB            1.00    186 A               2
                        (    1573.441 eV)
   224     224       --        71.321 au  fB            1.00    187 A               2
                        (    1940.742 eV)
   225     225       --       127.712 au  fB            1.00    188 A               2
                        (    3475.226 eV)
   226     226       --       128.405 au  fB            1.00    189 A               2
                        (    3494.070 eV)



 ================================
 (Slater-type)  F U N C T I O N S  ***  (Basis and Fit)  ***
 ================================
  

 Atom Type    1  (F)
 ==============

 Valence Basis Sets:  10
 -----------------------
   1 S   10.880000
   1 S    7.700000
   2 S    3.240000
   2 S    1.940000
   2 S    0.740000
   2 P    4.540000
   2 P    2.300000
   2 P    1.240000
   3 D    2.000000
   4 F    3.000000

 Atom Type    2  (H)
 ==============

 Valence Basis Sets:   5
 -----------------------
   1 S    0.690000
   1 S    0.920000
   1 S    1.580000
   2 P    1.250000
   3 D    2.500000

 Atom Type    3  (C)
 ==============

 Valence Basis Sets:  10
 -----------------------
   1 S    7.680000
   1 S    5.000000
   2 S    1.280000
   2 S    2.100000
   2 S    4.600000
   2 P    0.820000
   2 P    1.480000
   2 P    2.940000
   3 D    2.200000
   4 F    3.300000

 Atom Type    4  (F)
 ==============

 Valence Basis Sets:  10
 -----------------------
   1 S   10.880000
   1 S    7.700000
   2 S    3.240000
   2 S    1.940000
   2 S    0.740000
   2 P    4.540000
   2 P    2.300000
   2 P    1.240000
   3 D    2.000000
   4 F    3.000000

 Atom Type    5  (H)
 ==============

 Valence Basis Sets:   5
 -----------------------
   1 S    0.690000
   1 S    0.920000
   1 S    1.580000
   2 P    1.250000
   3 D    2.500000

 Atom Type    6  (N)
 ==============

 Valence Basis Sets:  10
 -----------------------
   1 S    8.740000
   1 S    5.900000
   2 S    5.150000
   2 S    2.500000
   2 S    1.500000
   2 P    3.680000
   2 P    1.880000
   2 P    1.000000
   3 D    2.200000
   4 F    3.300000

 Atom Type    7  (O)
 ==============

 Valence Basis Sets:  10
 -----------------------
   1 S    9.800000
   1 S    6.800000
   2 S    7.580000
   2 S    2.880000
   2 S    1.720000
   2 P    4.080000
   2 P    2.080000
   2 P    1.120000
   3 D    2.000000
   4 F    3.000000


 BAS: List of all Elementary Cartesian Basis Functions
 =====================================================

 The numbering in the list below (to the right of the function characteristics) is referred
 to in print-outs of MO eigenvectors and Mulliken populations in the BAS representation
 (as contrasted to the SFO representation).

 Notes:
 1. The functions are characterized by a polynomial prefactor (powers of x,y,z and r) and
    an exponential decay factor alpha.
 2. Since the basis sets are specific for an atom TYPE, the individual functions occur on
    all atoms of that type.
 3. The word 'Core' in the left margin signals that it is a Core Function (CF) : not a
    degree of freedom in the valence set, but only used to ensure orthogonalization of
    the other valence basis functions on the frozen Core Orbitals.


 (power of) X  Y  Z  R     Alpha  on Atom
            ==========     =====     ==========

 F                                    1
                                  ---------------------------------------------------------------------------
            0  0  0  0    10.880      1
            0  0  0  0     7.700      2
            0  0  0  1     3.240      3
            0  0  0  1     1.940      4
            0  0  0  1     0.740      5
            1  0  0  0     4.540      6
            0  1  0  0     4.540      7
            0  0  1  0     4.540      8
            1  0  0  0     2.300      9
            0  1  0  0     2.300     10
            0  0  1  0     2.300     11
            1  0  0  0     1.240     12
            0  1  0  0     1.240     13
            0  0  1  0     1.240     14
            2  0  0  0     2.000     15
            1  1  0  0     2.000     16
            1  0  1  0     2.000     17
            0  2  0  0     2.000     18
            0  1  1  0     2.000     19
            0  0  2  0     2.000     20
            3  0  0  0     3.000     21
            2  1  0  0     3.000     22
            2  0  1  0     3.000     23
            1  2  0  0     3.000     24
            1  1  1  0     3.000     25
            1  0  2  0     3.000     26
            0  3  0  0     3.000     27
            0  2  1  0     3.000     28
            0  1  2  0     3.000     29
            0  0  3  0     3.000     30

 H                                    2
                                  ---------------------------------------------------------------------------
            0  0  0  0     0.690     31
            0  0  0  0     0.920     32
            0  0  0  0     1.580     33
            1  0  0  0     1.250     34
            0  1  0  0     1.250     35
            0  0  1  0     1.250     36
            2  0  0  0     2.500     37
            1  1  0  0     2.500     38
            1  0  1  0     2.500     39
            0  2  0  0     2.500     40
            0  1  1  0     2.500     41
            0  0  2  0     2.500     42

 C                                    3    4
                                  ---------------------------------------------------------------------------
            0  0  0  0     7.680     43   73
            0  0  0  0     5.000     44   74
            0  0  0  1     1.280     45   75
            0  0  0  1     2.100     46   76
            0  0  0  1     4.600     47   77
            1  0  0  0     0.820     48   78
            0  1  0  0     0.820     49   79
            0  0  1  0     0.820     50   80
            1  0  0  0     1.480     51   81
            0  1  0  0     1.480     52   82
            0  0  1  0     1.480     53   83
            1  0  0  0     2.940     54   84
            0  1  0  0     2.940     55   85
            0  0  1  0     2.940     56   86
            2  0  0  0     2.200     57   87
            1  1  0  0     2.200     58   88
            1  0  1  0     2.200     59   89
            0  2  0  0     2.200     60   90
            0  1  1  0     2.200     61   91
            0  0  2  0     2.200     62   92
            3  0  0  0     3.300     63   93
            2  1  0  0     3.300     64   94
            2  0  1  0     3.300     65   95
            1  2  0  0     3.300     66   96
            1  1  1  0     3.300     67   97
            1  0  2  0     3.300     68   98
            0  3  0  0     3.300     69   99
            0  2  1  0     3.300     70  100
            0  1  2  0     3.300     71  101
            0  0  3  0     3.300     72  102

 F                                    5
                                  ---------------------------------------------------------------------------
            0  0  0  0    10.880    103
            0  0  0  0     7.700    104
            0  0  0  1     3.240    105
            0  0  0  1     1.940    106
            0  0  0  1     0.740    107
            1  0  0  0     4.540    108
            0  1  0  0     4.540    109
            0  0  1  0     4.540    110
            1  0  0  0     2.300    111
            0  1  0  0     2.300    112
            0  0  1  0     2.300    113
            1  0  0  0     1.240    114
            0  1  0  0     1.240    115
            0  0  1  0     1.240    116
            2  0  0  0     2.000    117
            1  1  0  0     2.000    118
            1  0  1  0     2.000    119
            0  2  0  0     2.000    120
            0  1  1  0     2.000    121
            0  0  2  0     2.000    122
            3  0  0  0     3.000    123
            2  1  0  0     3.000    124
            2  0  1  0     3.000    125
            1  2  0  0     3.000    126
            1  1  1  0     3.000    127
            1  0  2  0     3.000    128
            0  3  0  0     3.000    129
            0  2  1  0     3.000    130
            0  1  2  0     3.000    131
            0  0  3  0     3.000    132

 H                                    6    7    8
                                  ---------------------------------------------------------------------------
            0  0  0  0     0.690    133  145  157
            0  0  0  0     0.920    134  146  158
            0  0  0  0     1.580    135  147  159
            1  0  0  0     1.250    136  148  160
            0  1  0  0     1.250    137  149  161
            0  0  1  0     1.250    138  150  162
            2  0  0  0     2.500    139  151  163
            1  1  0  0     2.500    140  152  164
            1  0  1  0     2.500    141  153  165
            0  2  0  0     2.500    142  154  166
            0  1  1  0     2.500    143  155  167
            0  0  2  0     2.500    144  156  168

 N                                    9
                                  ---------------------------------------------------------------------------
            0  0  0  0     8.740    169
            0  0  0  0     5.900    170
            0  0  0  1     5.150    171
            0  0  0  1     2.500    172
            0  0  0  1     1.500    173
            1  0  0  0     3.680    174
            0  1  0  0     3.680    175
            0  0  1  0     3.680    176
            1  0  0  0     1.880    177
            0  1  0  0     1.880    178
            0  0  1  0     1.880    179
            1  0  0  0     1.000    180
            0  1  0  0     1.000    181
            0  0  1  0     1.000    182
            2  0  0  0     2.200    183
            1  1  0  0     2.200    184
            1  0  1  0     2.200    185
            0  2  0  0     2.200    186
            0  1  1  0     2.200    187
            0  0  2  0     2.200    188
            3  0  0  0     3.300    189
            2  1  0  0     3.300    190
            2  0  1  0     3.300    191
            1  2  0  0     3.300    192
            1  1  1  0     3.300    193
            1  0  2  0     3.300    194
            0  3  0  0     3.300    195
            0  2  1  0     3.300    196
            0  1  2  0     3.300    197
            0  0  3  0     3.300    198

 O                                   10   11
                                  ---------------------------------------------------------------------------
            0  0  0  0     9.800    199  229
            0  0  0  0     6.800    200  230
            0  0  0  1     7.580    201  231
            0  0  0  1     2.880    202  232
            0  0  0  1     1.720    203  233
            1  0  0  0     4.080    204  234
            0  1  0  0     4.080    205  235
            0  0  1  0     4.080    206  236
            1  0  0  0     2.080    207  237
            0  1  0  0     2.080    208  238
            0  0  1  0     2.080    209  239
            1  0  0  0     1.120    210  240
            0  1  0  0     1.120    211  241
            0  0  1  0     1.120    212  242
            2  0  0  0     2.000    213  243
            1  1  0  0     2.000    214  244
            1  0  1  0     2.000    215  245
            0  2  0  0     2.000    216  246
            0  1  1  0     2.000    217  247
            0  0  2  0     2.000    218  248
            3  0  0  0     3.000    219  249
            2  1  0  0     3.000    220  250
            2  0  1  0     3.000    221  251
            1  2  0  0     3.000    222  252
            1  1  1  0     3.000    223  253
            1  0  2  0     3.000    224  254
            0  3  0  0     3.000    225  255
            0  2  1  0     3.000    226  256
            0  1  2  0     3.000    227  257
            0  0  3  0     3.000    228  258

 Total number of charge fitting functions (nprimf)       790
 Total number of Cartesian basis functions (naos)        258
 Total number of Cartesian core functions  (ncos)          0

 ***************************************************************************************************



                                              ***********************
                                              *  T E C H N I C A L  *
                                              ***********************
  



 =============================================================
 P A R A L L E L I Z A T I O N  and  V E C T O R I Z A T I O N
 =============================================================
  
 Nr of parallel processes:                                1
 Maximum vector length in NumInt loops:                 128



 =====================
 S C F   U P D A T E S
 =====================
  
 Max. nr. of cycles:                               200
 Convergence criterion:                              0.0000010000
   secondary criterion:                              0.0010000000

 Mix parameter (when DIIS does not apply):           0.2000000000
 Mixed ADIIS+SDIIS will be used                  
    Max number of expansion vectors:                10
    Pure ADIIS when Max([F,P]) is above              0.1000000000
    Pure SDIIS when Max([F,P]) is below              0.0010000000
 Automatic ElectronSmearing (in case of problematic SCF convergence) disabled



 =================
 P R E C I S I O N  ***  (General: NumInt, NeglectFunctionTails, ...)  ***
 =================
  

 NumInt:           Target precision:                 4.0000000000
 -------           Initial precision:                4.0000000000
                   Min. precision (optimization):    4.0000000000

 Neglect Functions:          Basis functions:        0.1000000000E-05
 ------------------          Fit functions:          0.1000000000E-05



 ===========================
 L I N E A R   S C A L I N G
 ===========================
  

 Cut-off radii density fit:                        0.1000000000E-07
 Overlap cut-off criterion AO matrix elements:     0.1000000000E-05
 Cut-offs for Coulomb potential and fitted density:0.1000000000E-07
 Cut-off criterion for Coulomb multipole terms:    0.1000000000E-07
 Progressive Convergence parameter:                 0.000000000    
 ***************************************************************************************************



                                            ***************************
                                            *  C O M P U T A T I O N  *
                                            ***************************
  

 Number of elements of the density matrix on this node (used, total):     33411     33411



 ===========================================
 Numerical Integration : Fuzzy Cells (Becke)
 ===========================================
  
 Becke grid quality: NORMAL         
  
 Lebedev angular grid order:             min:  11 max:  23
 Nr. of radial points:                   min:  46 max:  55

 Total nr. of points:      73301
 Nr. of blocks:              573
 Block length:               128
 Nr. of dummy points:         43


 Test of Precision of the Numerical Integration Grid
 ===================================================

 Integral of the Total Core Density:                   0.00000000000000



 ========================
 Density Fitting (zlmFit)
 ========================
  
 ZlmFit Fit Quality: NORMAL         
  
 Max L-expansion:                        min:   6 max:   7
 Nr. of radial interpolation points:     min:  39 max:  54



 =====
 S C F  ***  ScaSCF  ***
 =====
  
 Initial density matrix is calculated as sum of fragments

 CYCLE    1
 SCF Error: norm([F,P])=      1.080716871593, max([F,P])=      0.690715860851
 orbitals (Q,E):
 ---------------
 A :20...39          ( 2.00    -0.2365)  ( 2.00    -0.2079)  ( 2.00    -0.2000)  ( 2.00    -0.1678)
                     ( 2.00    -0.1512)  ( 2.00    -0.1261)  ( 2.00    -0.1165)  ( 2.00    -0.0722)
                     ( 2.00    -0.0715)  ( 2.00    -0.0403)  ( 0.00     0.0260)  ( 0.00     0.1329)
                     ( 0.00     0.1640)  ( 0.00     0.1700)  ( 0.00     0.1942)  ( 0.00     0.2235)
                     ( 0.00     0.2362)  ( 0.00     0.2456)  ( 0.00     0.2697)  ( 0.00     0.3001)

 CYCLE    2
   MIX coefficients:  0.8000  0.2000
 SCF Error: norm([F,P])=      0.261245251829, max([F,P])=      0.037218156424
 orbitals (Q,E):
 ---------------
 A :20...30          ( 2.00    -0.2236)  ( 2.00    -0.2025)  ( 2.00    -0.1948)  ( 2.00    -0.1626)
                     ( 2.00    -0.1460)  ( 2.00    -0.1216)  ( 2.00    -0.1119)  ( 2.00    -0.0719)
                     ( 2.00    -0.0712)  ( 2.00    -0.0343)  ( 0.00     0.0268)

 CYCLE    3
  SDIIS (wt  0.000): -0.5636  1.5636
 A-DIIS (wt  1.000):  0.0000  1.0000
  DIIS coefficients:  0.0000  1.0000
 SCF Error: norm([F,P])=      0.117380202925, max([F,P])=      0.016631868477
 orbitals (Q,E):
 ---------------
 A :20...30          ( 2.00    -0.1996)  ( 2.00    -0.1816)  ( 2.00    -0.1746)  ( 2.00    -0.1414)
                     ( 2.00    -0.1311)  ( 2.00    -0.1078)  ( 2.00    -0.0971)  ( 2.00    -0.0770)
                     ( 2.00    -0.0762)  ( 2.00    -0.0159)  ( 0.00     0.0360)

 CYCLE    4
  SDIIS (wt  0.000):  0.4922 -0.0983  0.6061
 A-DIIS (wt  1.000): -0.0000  0.6504  0.3496
  DIIS coefficients: -0.0000  0.6504  0.3496
 SCF Error: norm([F,P])=      0.196709513284, max([F,P])=      0.026585942396
 orbitals (Q,E):
 ---------------
 A :20...30          ( 2.00    -0.2070)  ( 2.00    -0.1916)  ( 2.00    -0.1855)  ( 2.00    -0.1511)
                     ( 2.00    -0.1349)  ( 2.00    -0.1102)  ( 2.00    -0.1008)  ( 2.00    -0.0804)
                     ( 2.00    -0.0796)  ( 2.00    -0.0221)  ( 0.00     0.0377)

 CYCLE    5
  SDIIS (wt  0.925): -0.0306  0.3127  0.1767  0.5412
 A-DIIS (wt  0.075):  0.0000  0.0000  0.0000  1.0000
  DIIS coefficients: -0.0283  0.2892  0.1634  0.5757
 SCF Error: norm([F,P])=      0.044382158567, max([F,P])=      0.008440144011
 orbitals (Q,E):
 ---------------
 A :20...30          ( 2.00    -0.2076)  ( 2.00    -0.1922)  ( 2.00    -0.1868)  ( 2.00    -0.1523)
                     ( 2.00    -0.1357)  ( 2.00    -0.1122)  ( 2.00    -0.1011)  ( 2.00    -0.0782)
                     ( 2.00    -0.0774)  ( 2.00    -0.0239)  ( 0.00     0.0347)

 CYCLE    6
  SDIIS (wt  0.925): -0.1132  0.2755  0.0247  0.4580  0.3550
 A-DIIS (wt  0.075):  0.0000  0.0000  0.0000  0.3821  0.6179
  DIIS coefficients: -0.1047  0.2548  0.0229  0.4523  0.3747
 SCF Error: norm([F,P])=      0.032031329558, max([F,P])=      0.011313273218
 orbitals (Q,E):
 ---------------
 A :20...30          ( 2.00    -0.2071)  ( 2.00    -0.1916)  ( 2.00    -0.1858)  ( 2.00    -0.1514)
                     ( 2.00    -0.1362)  ( 2.00    -0.1117)  ( 2.00    -0.1022)  ( 2.00    -0.0780)
                     ( 2.00    -0.0773)  ( 2.00    -0.0228)  ( 0.00     0.0353)

 CYCLE    7
  SDIIS (wt  0.968): -0.0448  0.1066  0.0055  0.2342  0.2913  0.4072
 A-DIIS (wt  0.032):  0.0000  0.0000  0.0000  0.0000  0.1622  0.8378
  DIIS coefficients: -0.0433  0.1032  0.0053  0.2267  0.2872  0.4209
 SCF Error: norm([F,P])=      0.012196281168, max([F,P])=      0.004139770390
 orbitals (Q,E):
 ---------------
 A :20...30          ( 2.00    -0.2075)  ( 2.00    -0.1920)  ( 2.00    -0.1860)  ( 2.00    -0.1518)
                     ( 2.00    -0.1357)  ( 2.00    -0.1115)  ( 2.00    -0.1015)  ( 2.00    -0.0782)
                     ( 2.00    -0.0774)  ( 2.00    -0.0231)  ( 0.00     0.0356)

 CYCLE    8
  SDIIS (wt  1.000): -0.0196  0.0446  0.0010  0.1012  0.1427  0.2564  0.4736
  DIIS coefficients: -0.0196  0.0446  0.0010  0.1012  0.1427  0.2564  0.4736
 SCF Error: norm([F,P])=      0.002216585120, max([F,P])=      0.000383400425
 orbitals (Q,E):
 ---------------
 A :20...30          ( 2.00    -0.2075)  ( 2.00    -0.1920)  ( 2.00    -0.1861)  ( 2.00    -0.1518)
                     ( 2.00    -0.1358)  ( 2.00    -0.1116)  ( 2.00    -0.1016)  ( 2.00    -0.0782)
                     ( 2.00    -0.0774)  ( 2.00    -0.0232)  ( 0.00     0.0355)

 CYCLE    9
  SDIIS (wt  1.000): -0.0049  0.0119  0.0007  0.0311  0.0505  0.1057  0.2872  0.5178
  DIIS coefficients: -0.0049  0.0119  0.0007  0.0311  0.0505  0.1057  0.2872  0.5178
 SCF Error: norm([F,P])=      0.000659270172, max([F,P])=      0.000093039564
 orbitals (Q,E):
 ---------------
 A :20...30          ( 2.00    -0.2075)  ( 2.00    -0.1920)  ( 2.00    -0.1861)  ( 2.00    -0.1518)
                     ( 2.00    -0.1359)  ( 2.00    -0.1117)  ( 2.00    -0.1017)  ( 2.00    -0.0782)
                     ( 2.00    -0.0774)  ( 2.00    -0.0231)  ( 0.00     0.0354)

 CYCLE   10
  SDIIS (wt  1.000): -0.0006  0.0025  0.0008  0.0089  0.0170  0.0404  0.1334  0.3374  0.4602
  DIIS coefficients: -0.0006  0.0025  0.0008  0.0089  0.0170  0.0404  0.1334  0.3374  0.4602
 SCF Error: norm([F,P])=      0.000259502877, max([F,P])=      0.000034616280
 orbitals (Q,E):
 ---------------
 A :20...30          ( 2.00    -0.2075)  ( 2.00    -0.1920)  ( 2.00    -0.1861)  ( 2.00    -0.1518)
                     ( 2.00    -0.1358)  ( 2.00    -0.1116)  ( 2.00    -0.1017)  ( 2.00    -0.0782)
                     ( 2.00    -0.0774)  ( 2.00    -0.0232)  ( 0.00     0.0355)

 CYCLE   11
  SDIIS (wt  1.000): -0.0001  0.0008  0.0004  0.0034  0.0067  0.0163  0.0566  0.1592  0.2727  0.4840
  DIIS coefficients: -0.0001  0.0008  0.0004  0.0034  0.0067  0.0163  0.0566  0.1592  0.2727  0.4840
 SCF Error: norm([F,P])=      0.000070944678, max([F,P])=      0.000019040814
 orbitals (Q,E):
 ---------------
 A :20...30          ( 2.00    -0.2075)  ( 2.00    -0.1920)  ( 2.00    -0.1861)  ( 2.00    -0.1518)
                     ( 2.00    -0.1358)  ( 2.00    -0.1116)  ( 2.00    -0.1017)  ( 2.00    -0.0782)
                     ( 2.00    -0.0774)  ( 2.00    -0.0231)  ( 0.00     0.0354)

 CYCLE   12
  SDIIS (wt  1.000):  0.0001  0.0001  0.0006  0.0014  0.0038  0.0155  0.0516  0.1126  0.3300  0.4843
  DIIS coefficients:  0.0001  0.0001  0.0006  0.0014  0.0038  0.0155  0.0516  0.1126  0.3300  0.4843
 SCF Error: norm([F,P])=      0.000034428273, max([F,P])=      0.000010433370
 orbitals (Q,E):
 ---------------
 A :20...30          ( 2.00    -0.2075)  ( 2.00    -0.1920)  ( 2.00    -0.1861)  ( 2.00    -0.1518)
                     ( 2.00    -0.1358)  ( 2.00    -0.1116)  ( 2.00    -0.1017)  ( 2.00    -0.0782)
                     ( 2.00    -0.0774)  ( 2.00    -0.0231)  ( 0.00     0.0354)

 CYCLE   13
  SDIIS (wt  1.000):  0.0000  0.0000  0.0002  0.0008  0.0051  0.0197  0.0472  0.1480  0.2993  0.4797
  DIIS coefficients:  0.0000  0.0000  0.0002  0.0008  0.0051  0.0197  0.0472  0.1480  0.2993  0.4797
 SCF Error: norm([F,P])=      0.000010378479, max([F,P])=      0.000002387757
 orbitals (Q,E):
 ---------------
 A :20...30          ( 2.00    -0.2075)  ( 2.00    -0.1920)  ( 2.00    -0.1861)  ( 2.00    -0.1518)
                     ( 2.00    -0.1358)  ( 2.00    -0.1116)  ( 2.00    -0.1017)  ( 2.00    -0.0782)
                     ( 2.00    -0.0774)  ( 2.00    -0.0231)  ( 0.00     0.0354)

 CYCLE   14
  SDIIS (wt  1.000): -0.0000  0.0000  0.0001  0.0011  0.0045  0.0116  0.0375  0.1144  0.2481  0.5826
  DIIS coefficients: -0.0000  0.0000  0.0001  0.0011  0.0045  0.0116  0.0375  0.1144  0.2481  0.5826
 SCF Error: norm([F,P])=      0.000002902633, max([F,P])=      0.000000674922
 orbitals (Q,E):
 ---------------
 A :20...30          ( 2.00    -0.2075)  ( 2.00    -0.1920)  ( 2.00    -0.1861)  ( 2.00    -0.1518)
                     ( 2.00    -0.1358)  ( 2.00    -0.1116)  ( 2.00    -0.1017)  ( 2.00    -0.0782)
                     ( 2.00    -0.0774)  ( 2.00    -0.0231)  ( 0.00     0.0354)

 SCF CONVERGED

 CYCLE   15
 ***************************************************************************************************



                                                *******************
                                                *  R E S U L T S  *
                                                *******************
  
 *** Using FIT density in Focky
  SDIIS (wt  1.000):  0.0000  0.0000  0.0003  0.0015  0.0040  0.0144  0.0491  0.1122  0.2990  0.5195
  DIIS coefficients:  0.0000  0.0000  0.0003  0.0015  0.0040  0.0144  0.0491  0.1122  0.2990  0.5195
 SCF Error: norm([F,P])=      0.000000708396, max([F,P])=      0.000000091785

 Scaled ZORA Orbital Energies, per Irrep and Spin:
 =================================================
                        Occup              E (au)              E (eV)       Diff (eV) with prev. cycle
                        -----      --------------------        ------       --------------------------
 A
              20        2.000     -0.20746235008791E+00        -5.645              -1.73E-06
              21        2.000     -0.19199627863602E+00        -5.224              -1.70E-06
              22        2.000     -0.18607813373625E+00        -5.063              -1.28E-06
              23        2.000     -0.15179389649802E+00        -4.131              -1.86E-06
              24        2.000     -0.13583487516855E+00        -3.696              -1.15E-06
              25        2.000     -0.11163332727096E+00        -3.038              -1.41E-06
              26        2.000     -0.10166274878201E+00        -2.766              -1.11E-06
              27        2.000     -0.78176832271170E-01        -2.127              -5.27E-07
              28        2.000     -0.77388867257856E-01        -2.106              -5.14E-07
              29        2.000     -0.23149043090497E-01        -0.630              -1.69E-06
              30        0.000      0.35448664631303E-01         0.965
              31        0.000      0.14242224786372E+00         3.876
              32        0.000      0.16786094478209E+00         4.568
              33        0.000      0.17666327838612E+00         4.807
              34        0.000      0.19646693218333E+00         5.346
              35        0.000      0.22837194770384E+00         6.214
              36        0.000      0.23380272769379E+00         6.362
              37        0.000      0.25122108609073E+00         6.836
              38        0.000      0.27622407735742E+00         7.516
              39        0.000      0.30226481742341E+00         8.225
  
 HOMO :       29 A                -0.23149043090497E-01
 LUMO :       30 A                 0.35448664631303E-01
  


 All Electron Calculation, thus no Orbital Energies of the Core Orbitals are calculated


 Fit test: (difference of exact and fit density, squared integrated, result summed over spins)
         Sum-of-Fragments:                             0.00012462442292
         Orthogonalized Fragments:                     0.00012871121597
         SCF:                                          0.00013069523139



 ==========================
 Electron Density at Nuclei
 ==========================
  
 The electron density is calculated at points on a small sphere around the center of a nucleus.
 The printed electron density is the average electron density on these points.
 The radius of the sphere is the printed approximate finite nuclear radius.
 Note: ZORA-4 density is used, which includes small component density

         Atom        Nuclear Radius (Angstrom)             Electron Density (a.u.)
         ----        -------------------------             -----------------------
     1)   F                 0.0000361580                              450.57477
     2)   H                 0.0000181514                                0.36019
     3)   C                 0.0000320678                              127.19583
     4)   C                 0.0000320678                              127.01609
     5)   F                 0.0000361580                              450.73239
     6)   H                 0.0000181514                                0.52342
     7)   H                 0.0000181514                                0.50859
     8)   H                 0.0000181514                                0.50620
     9)   N                 0.0000333706                              206.24024
    10)   O                 0.0000345546                              314.26925
    11)   O                 0.0000345546                              314.24971



 =======================================
 M U L L I K E N   P O P U L A T I O N S
 =======================================
  
 The survey below gives for each atom:
 a) the total charge (Z minus electrons)
 b) the net spin polarization (nr of electrons spin-A minus spin-B)
 c) for each spin the atomic electron valence density (integrated) per L-value.

 Atom              Charge    Spin density          S         P         D         F
 ----              ------    ------------       ------    ------    ------    ------
 1 F              -0.6788                       4.0097    5.6558    0.0122    0.0011
 2 H               0.3197                       0.4838    0.1889    0.0077    0.0000
 3 C               0.6672                       2.9500    2.2517    0.1235    0.0076
 4 C               0.2020                       2.9657    2.7915    0.0385    0.0023
 5 F              -0.4765                       3.9653    5.4766    0.0312    0.0035
 6 H              -0.2313                       1.1552    0.0701    0.0059    0.0000
 7 H              -0.2359                       1.1410    0.0889    0.0060    0.0000
 8 H              -0.2651                       1.1692    0.0900    0.0059    0.0000
 9 N               0.5565                       3.2370    2.9831    0.2102    0.0134
 10 O             -0.4298                       3.8340    4.5227    0.0646    0.0086
 11 O             -0.4280                       3.8311    4.5228    0.0654    0.0087

 Populations of individual BAS functions
 ----------------------------------------
 1 F            0.5916  1.3843  1.0887  0.8683  0.0767  0.3651  0.4002  0.4040  0.9036  0.9224
                0.9284  0.4898  0.6165  0.6257  0.0139  0.0034  0.0009 -0.0028  0.0001 -0.0033
                0.0086  0.0049  0.0039 -0.0034  0.0000 -0.0047 -0.0030 -0.0006 -0.0015 -0.0032
 2 H           -0.4483  0.6229  0.3092  0.1193  0.0378  0.0317  0.0099  0.0022  0.0016 -0.0037
                0.0003 -0.0026
 3 C            0.5065  1.4846  0.0598  0.9441 -0.0449 -0.1078 -0.1415 -0.1449  0.5917  0.7363
                0.8021  0.1440  0.1732  0.1987  0.0052  0.0266  0.0360  0.0104  0.0213  0.0240
               -0.0018  0.0001 -0.0007  0.0012  0.0011  0.0034  0.0001 -0.0010  0.0015  0.0037
 4 C            0.5060  1.4823  0.1353  0.8778 -0.0357  0.1735 -0.1656 -0.0412  0.7755  0.7725
                0.7000  0.2047  0.1886  0.1835 -0.0019  0.0081  0.0045  0.0055  0.0061  0.0161
               -0.0020 -0.0003 -0.0028  0.0005  0.0002  0.0023 -0.0005 -0.0017  0.0012  0.0054
 5 F            0.5917  1.3844  1.0891  0.8845  0.0156  0.3449  0.4135  0.3931  0.8811  0.9920
                0.9620  0.4371  0.5476  0.5053  0.0182  0.0064  0.0103 -0.0062  0.0015  0.0010
                0.0097  0.0066  0.0075 -0.0065  0.0003 -0.0019 -0.0064 -0.0032  0.0004 -0.0031
 6 H            0.2441  0.5961  0.3150  0.0244  0.0243  0.0214 -0.0017  0.0015  0.0009  0.0078
                0.0012 -0.0039
 7 H            0.2398  0.5741  0.3271  0.0307  0.0344  0.0238 -0.0022  0.0015  0.0005  0.0081
                0.0015 -0.0033
 8 H            0.2854  0.5645  0.3193  0.0342  0.0313  0.0244 -0.0018  0.0014  0.0006  0.0074
                0.0013 -0.0029
 9 N            0.5503  1.4320 -0.0412  1.0311  0.2648  0.1705  0.1811  0.1681  0.8158  0.8491
                0.7976  0.0090 -0.0571  0.0489  0.0233  0.0549  0.0246  0.0429  0.0475  0.0169
               -0.0015 -0.0004  0.0027  0.0038  0.0023  0.0013  0.0065  0.0039 -0.0019 -0.0033
 10 O           0.7107  1.2119  0.0490  1.0440  0.8184  0.2471  0.3474  0.2460  0.7570  0.9660
                0.7536  0.3153  0.5598  0.3304  0.0177  0.0095  0.0190 -0.0045  0.0077  0.0151
                0.0064  0.0063  0.0055 -0.0071  0.0015  0.0039 -0.0101 -0.0065  0.0051  0.0037
 11 O           0.7100  1.2133  0.0482  1.0447  0.8149  0.2984  0.2528  0.2903  0.8651  0.7628
                0.8509  0.4618  0.3029  0.4377  0.0002  0.0188  0.0033  0.0239  0.0183  0.0010
               -0.0065 -0.0059 -0.0024  0.0109  0.0008 -0.0021  0.0153  0.0108 -0.0059 -0.0062

 Gross Charges per Atom (Z minus electrons)
 ==========================================
            -0.6788    0.3197    0.6672    0.2020   -0.4765   -0.2313   -0.2359   -0.2651    0.5565   -0.4298
            -0.4280
 Net Total: -1.00000000


 Atom-Atom Population Matrix (off-diagonal elements not doubled)
 ===============================================================

     1 :     9.4858
     2 :     0.2028    0.3571
     3 :    -0.0032    0.0015    4.1540
     4 :    -0.0149    0.1925    0.4482    4.5848
     5 :     0.0013   -0.0018    0.1871   -0.0408    9.4545
     6 :     0.0127   -0.0302    0.3232   -0.0772   -0.0710    1.1329
     7 :    -0.0001   -0.0271   -0.0313    0.3696   -0.0099    0.0186    1.0238
     8 :    -0.0029   -0.0127   -0.0205    0.3607   -0.0054   -0.0407   -0.0997    1.0826
     9 :    -0.0008    0.0021    0.3957   -0.0081   -0.0309   -0.0413   -0.0149    0.0067    5.2117
    10 :    -0.0016    0.0007   -0.0564    0.0003   -0.0019   -0.0097    0.0018   -0.0025    0.4561    8.1466
    11 :    -0.0002   -0.0045   -0.0655   -0.0171   -0.0047    0.0141    0.0052   -0.0007    0.4673   -0.1034
             8.1374


 Frag-Frag Population Matrix (off-diagonal elements not doubled)
 ===============================================================

     1 :    10.2484
     2 :     0.1108   47.5301



 =================================================
 H I R S H F E L D   C H A R G E   A N A L Y S I S
 =================================================
  
 For each fragment: the (numerical) integral of rho(scf) * rho(fragment)/rho(sum-of-fragments)
 (nuclear charges are included, electrons are counted negative)

 The fragments and their ordering are defined in the early G E O M E T R Y output section.
 If you use single-atom fragments, this usually implies that all atoms of the same
 chemical type are grouped together. This may not be the order in which you listed them
 in the input file!

  Fragment                       Charge
 ------------------------------------------
    1  fA                       -0.8161
    2  fB                       -0.1839

 Sum of these charges =         -1.00000424
 (accuracy NumInt/Tails)



 =============================
 V O R O N O I   C H A R G E S
 =============================
  
 For each atom: the (numerical) integral of the total electronic charge density in its Voronoi cell,
 i.e. the region of space that is closer to that atom than to any other atom.
 (cf. Wigner-Seitz cells in crystals)

 Within the Voronoi cell the subintegrals over the atomic sphere and the remaining part are evaluated
 separately to give the numbers of electrons (negative charge) in these regions.
 The net total charge in the cell (including the nuclear charge) is also given.

 Values are provided for
    a) the Initial (sum-of-fragments) density
[...]
                                    1.88%    26 A              -0.360  0.00     2 fB
                                    1.68%    30 A               1.646  0.00     2 fB
                                    1.44%    43 A               9.581  0.00     2 fB
                                    1.43%    20 A              -9.440  2.00     2 fB
                                    1.00%    14 A             -14.042  2.00     2 fB
       0.07754       222 A         23.14%     5 A              -1.467  2.00     1 fA
                                   22.04%    26 A              -0.360  0.00     2 fB
                                   21.05%    28 A               0.674  0.00     2 fB
                                   11.18%    29 A               0.991  0.00     2 fB
                                    6.89%    17 A             -11.956  2.00     2 fB
                                    3.57%    18 A             -10.921  2.00     2 fB
                                    3.27%     3 A              -4.249  2.00     1 fA
                                   -2.71%     8 A               9.805  0.00     1 fA
                                    2.54%    42 A               9.379  0.00     2 fB
                                    2.25%    24 A              -6.605  1.00     2 fB
                                    2.17%    13 A             -14.071  2.00     2 fB
                                   -1.86%    10 A             -21.210  2.00     2 fB
                                   -1.74%    32 A               3.211  0.00     2 fB
                                    1.72%    20 A              -9.440  2.00     2 fB
                                    1.38%    19 A             -10.421  2.00     2 fB
                                    1.16%    41 A               8.536  0.00     2 fB
                                    1.13%    23 A              -7.297  2.00     2 fB
      -0.07582         5 A         44.92%     5 A              -1.467  2.00     1 fA
                                   13.67%    29 A               0.991  0.00     2 fB
                                   12.11%    26 A              -0.360  0.00     2 fB
                                    6.61%    28 A               0.674  0.00     2 fB
                                    4.96%     6 A               4.167  1.00     1 fA
                                    3.55%    13 A             -14.071  2.00     2 fB
                                    2.63%    22 A              -7.688  2.00     2 fB
                                    2.22%     8 A               9.805  0.00     1 fA
                                   -2.14%    34 A               4.096  0.00     2 fB
                                    1.78%    31 A               1.985  0.00     2 fB
                                   -1.42%    11 A             -18.120  2.00     2 fB
                                    1.40%    14 A             -14.042  2.00     2 fB
                                    1.31%     7 A             -31.450  2.00     2 fB
                                    1.15%    15 A              36.776  0.00     1 fA
                                    1.06%    35 A               4.815  0.00     2 fB
       0.06833       221 A         11.50%    22 A              -7.688  2.00     2 fB
                                    9.73%    31 A               1.985  0.00     2 fB
                                    9.08%     5 A              -1.467  2.00     1 fA
                                    8.34%     3 A              -4.249  2.00     1 fA
                                    6.97%    29 A               0.991  0.00     2 fB
                                    6.58%    17 A             -11.956  2.00     2 fB
                                    6.35%    39 A               6.826  0.00     2 fB
                                    6.11%    10 A              17.523  0.00     1 fA
                                    5.79%    20 A              -9.440  2.00     2 fB
                                    5.14%    38 A               6.413  0.00     2 fB
                                    4.91%    28 A               0.674  0.00     2 fB
                                    3.10%    27 A               0.353  0.00     2 fB
                                    3.07%    36 A               5.003  0.00     2 fB
                                    3.03%    19 A             -10.421  2.00     2 fB
                                    2.83%     8 A               9.805  0.00     1 fA
                                    1.99%    24 A              -6.605  1.00     2 fB
                                    1.61%    30 A               1.646  0.00     2 fB
                                   -1.51%     6 A               4.167  1.00     1 fA
                                    1.38%    16 A             -12.688  2.00     2 fB
                                   -1.27%    10 A             -21.210  2.00     2 fB
                                   -1.22%    34 A               4.096  0.00     2 fB
                                    1.19%     4 A              -1.468  2.00     1 fA
      -0.06494         6 A         14.28%    17 A             -11.956  2.00     2 fB
                                    9.71%    27 A               0.353  0.00     2 fB
                                    9.44%     5 A              -1.467  2.00     1 fA
                                    6.47%    20 A              -9.440  2.00     2 fB
                                    5.69%    39 A               6.826  0.00     2 fB
                                    5.47%    10 A             -21.210  2.00     2 fB
                                    4.65%    10 A              17.523  0.00     1 fA
                                    3.66%    36 A               5.003  0.00     2 fB
                                    3.31%    44 A               9.946  0.00     2 fB
                                    2.73%    11 A             -18.120  2.00     2 fB
                                    2.43%    14 A             -14.042  2.00     2 fB
                                    2.42%    22 A              -7.688  2.00     2 fB
                                    2.37%    16 A             -12.688  2.00     2 fB
                                    2.34%    37 A               6.232  0.00     2 fB
                                    2.05%    13 A             -14.071  2.00     2 fB
                                    2.05%    32 A               3.211  0.00     2 fB
                                    1.91%     3 A              -4.249  2.00     1 fA
                                    1.72%    19 A             -10.421  2.00     2 fB
                                    1.67%    30 A               1.646  0.00     2 fB
                                    1.65%    34 A               4.096  0.00     2 fB
                                    1.39%     6 A               4.167  1.00     1 fA
                                    1.36%     7 A               6.835  0.00     1 fA
                                   -1.09%    26 A              -0.360  0.00     2 fB
       0.06248       220 A         16.98%    22 A              -7.688  2.00     2 fB
                                    6.96%    34 A               4.096  0.00     2 fB
                                    6.76%    31 A               1.985  0.00     2 fB
                                    6.44%    11 A             -18.120  2.00     2 fB
                                    6.43%    32 A               3.211  0.00     2 fB
                                    5.65%     4 A              -1.468  2.00     1 fA
                                    5.13%    14 A             -14.042  2.00     2 fB
                                    4.18%    44 A               9.946  0.00     2 fB
                                    4.09%    10 A             -21.210  2.00     2 fB
                                    4.09%    27 A               0.353  0.00     2 fB
                                    3.75%    10 A              17.523  0.00     1 fA
                                    2.73%    17 A             -11.956  2.00     2 fB
                                    2.66%    26 A              -0.360  0.00     2 fB
                                    2.25%     5 A              -1.467  2.00     1 fA
                                    2.25%    36 A               5.003  0.00     2 fB
                                   -2.09%     6 A               4.167  1.00     1 fA
                                    1.75%    37 A               6.232  0.00     2 fB
                                    1.69%    20 A              -9.440  2.00     2 fB
                                    1.63%    46 A              10.913  0.00     2 fB
                                    1.46%    23 A              -7.297  2.00     2 fB
                                    1.45%    28 A               0.674  0.00     2 fB
                                    1.39%    33 A               3.355  0.00     2 fB
                                    1.37%    12 A              23.957  0.00     1 fA
                                    1.36%    39 A               6.826  0.00     2 fB
                                    1.32%    38 A               6.413  0.00     2 fB
      -0.05764         7 A         33.49%     4 A              -1.468  2.00     1 fA
                                   14.21%    31 A               1.985  0.00     2 fB
                                    8.23%    22 A              -7.688  2.00     2 fB
                                    7.11%     6 A               4.167  1.00     1 fA
                                    5.88%    28 A               0.674  0.00     2 fB
                                    4.56%    38 A               6.413  0.00     2 fB
                                    4.47%     8 A               9.805  0.00     1 fA
                                    3.38%     9 A              17.523  0.00     1 fA
                                   -3.02%    11 A             -18.120  2.00     2 fB
                                    2.70%     7 A             -31.450  2.00     2 fB
                                    2.68%    34 A               4.096  0.00     2 fB
                                    2.61%    32 A               3.211  0.00     2 fB
                                    2.37%    14 A             -14.042  2.00     2 fB
                                    1.97%    30 A               1.646  0.00     2 fB
                                   -1.93%     3 A              -4.249  2.00     1 fA
                                    1.82%    25 A              -3.636  0.00     2 fB
                                    1.57%    15 A              36.776  0.00     1 fA
                                   -1.55%     2 A             -20.533  2.00     1 fA
                                    1.51%    13 A             -14.071  2.00     2 fB
                                    1.40%    10 A             -21.210  2.00     2 fB
                                    1.40%    23 A              -7.297  2.00     2 fB
                                    1.16%    16 A             -12.688  2.00     2 fB
                                   -1.04%    24 A              -6.605  1.00     2 fB
       0.05197       219 A         26.61%     4 A              -1.468  2.00     1 fA
                                   16.47%    30 A               1.646  0.00     2 fB
                                    7.08%    22 A              -7.688  2.00     2 fB
                                    5.99%    36 A               5.003  0.00     2 fB
                                    4.74%    29 A               0.991  0.00     2 fB
                                    4.69%    37 A               6.232  0.00     2 fB
                                    4.44%     3 A              -4.249  2.00     1 fA
                                    3.54%    34 A               4.096  0.00     2 fB
                                    3.02%    35 A               4.815  0.00     2 fB
                                    2.98%     6 A               4.167  1.00     1 fA
                                    2.94%     9 A              17.523  0.00     1 fA
                                    2.46%    16 A             -12.688  2.00     2 fB
                                    2.32%    33 A               3.355  0.00     2 fB
                                   -1.84%    26 A              -0.360  0.00     2 fB
                                    1.69%     8 A               9.805  0.00     1 fA
                                    1.46%    25 A              -3.636  0.00     2 fB
                                    1.29%    39 A               6.826  0.00     2 fB
 Mulliken charges used for AMS results%charges...


    =====================
     CALCULATION RESULTS
    =====================

Energy (hartree)            -0.21487552


--------------
Atomic charges
--------------
  Index   Atom    Charge
      1      F   -0.6788
      2      H    0.3197
      3      C    0.6672
      4      C    0.2020
      5      F   -0.4765
      6      H   -0.2313
      7      H   -0.2359
      8      H   -0.2651
      9      N    0.5565
     10      O   -0.4298
     11      O   -0.4280


Dipole moment vector    (Debye):     6.71292956    2.11769562   -1.75070188
              magnitude (Debye):     7.25348296


-----------------------
Molecular orbitals info
-----------------------
n orbitals:              226
n spin:                    1

Note: only printing virtual orbitals with
      energy smaller than HOMO + 100. eV

HOMO (eV):              -0.6299
LUMO (eV):               0.9646
HOMO-LUMO gap (eV):      1.5945

   Index   Energy (eV)    Occupation
     144       99.0211         0.000       
     143       98.3647         0.000       
     142       97.4524         0.000       
     141       96.9776         0.000       
     140       96.5041         0.000       
     139       96.0375         0.000       
     138       95.7875         0.000       
     137       95.6656         0.000       
     136       95.0212         0.000       
     135       94.1222         0.000       
     134       92.4378         0.000       
     133       91.7627         0.000       
     132       89.8630         0.000       
     131       86.7868         0.000       
     130       85.4206         0.000       
     129       85.0760         0.000       
     128       83.8307         0.000       
     127       83.0159         0.000       
     126       81.6630         0.000       
     125       81.2891         0.000       
     124       80.6171         0.000       
     123       78.9888         0.000       
     122       76.6596         0.000       
     121       75.3364         0.000       
     120       73.7867         0.000       
     119       71.3189         0.000       
     118       70.8229         0.000       
     117       68.9875         0.000       
     116       67.1323         0.000       
     115       66.5618         0.000       
     114       65.8086         0.000       
     113       64.4746         0.000       
     112       63.2506         0.000       
     111       62.3685         0.000       
     110       60.9973         0.000       
     109       60.2700         0.000       
     108       59.8664         0.000       
     107       57.9621         0.000       
     106       57.2647         0.000       
     105       56.4139         0.000       
     104       55.9318         0.000       
     103       55.0430         0.000       
     102       54.9604         0.000       
     101       52.4874         0.000       
     100       51.5209         0.000       
      99       51.0438         0.000       
      98       49.4231         0.000       
      97       48.6662         0.000       
      96       47.8106         0.000       
      95       47.0913         0.000       
      94       45.8346         0.000       
      93       45.2936         0.000       
      92       43.5767         0.000       
      91       42.6007         0.000       
      90       41.1398         0.000       
      89       40.3802         0.000       
      88       40.1496         0.000       
      87       39.7688         0.000       
      86       39.2283         0.000       
      85       38.1546         0.000       
      84       37.8006         0.000       
      83       37.5969         0.000       
      82       37.0621         0.000       
      81       36.6942         0.000       
      80       36.3822         0.000       
      79       35.6539         0.000       
      78       34.9333         0.000       
      77       33.5946         0.000       
      76       33.1077         0.000       
      75       32.1182         0.000       
      74       30.7858         0.000       
      73       30.0285         0.000       
      72       29.7444         0.000       
      71       28.0293         0.000       
      70       27.8202         0.000       
      69       26.5797         0.000       
      68       25.9586         0.000       
      67       25.8764         0.000       
      66       24.9035         0.000       
      65       24.7136         0.000       
      64       23.7091         0.000       
      63       22.3164         0.000       
      62       22.0303         0.000       
      61       21.7532         0.000       
      60       20.7498         0.000       
      59       20.4348         0.000       
      58       19.6812         0.000       
      57       18.3403         0.000       
      56       17.2052         0.000       
      55       16.4387         0.000       
      54       15.9895         0.000       
      53       15.3531         0.000       
      52       15.0129         0.000       
      51       14.7344         0.000       
      50       14.5099         0.000       
      49       13.9441         0.000       
      48       13.5378         0.000       
      47       13.0065         0.000       
      46       12.2380         0.000       
      45       11.3231         0.000       
      44       10.7198         0.000       
      43       10.2149         0.000       
      42        9.8419         0.000       
      41        9.2887         0.000       
      40        8.8265         0.000       
      39        8.2250         0.000       
      38        7.5164         0.000       
      37        6.8361         0.000       
      36        6.3621         0.000       
      35        6.2143         0.000       
      34        5.3461         0.000       
      33        4.8073         0.000       
      32        4.5677         0.000       
      31        3.8755         0.000       
      30        0.9646         0.000 < LUMO
      29       -0.6299         2.000 < HOMO
      28       -2.1059         2.000       
      27       -2.1273         2.000       
      26       -2.7664         2.000       
      25       -3.0377         2.000       
      24       -3.6963         2.000       
      23       -4.1305         2.000       
      22       -5.0634         2.000       
      21       -5.2245         2.000       
      20       -5.6453         2.000       
      19       -6.4511         2.000       
      18       -7.8466         2.000       
      17       -8.5845         2.000       
      16       -9.1404         2.000       
      15       -9.2968         2.000       
      14      -10.3721         2.000       
      13      -12.6040         2.000       
      12      -15.8517         2.000       
      11      -21.1269         2.000       
      10      -22.2869         2.000       
       9      -25.4956         2.000       
       8      -26.7584         2.000       
       7     -264.6007         2.000       
       6     -268.8249         2.000       
       5     -383.3794         2.000       
       4     -508.3891         2.000       
       3     -508.4185         2.000       
       2     -653.3734         2.000       
       1     -657.0687         2.000       

AMS application finished. Exiting.
NORMAL TERMINATION
     Total cpu time:      49.59
  Total system time:       0.27
 Total elapsed time:      50.01
NORMAL TERMINATION
