srun: Job 662414 step creation temporarily disabled, retrying (Requested nodes are busy)
srun: Job 662414 step creation still disabled, retrying (Requested nodes are busy)
srun: Job 662414 step creation still disabled, retrying (Requested nodes are busy)
srun: Job 662414 step creation still disabled, retrying (Requested nodes are busy)
srun: Job 662414 step creation still disabled, retrying (Requested nodes are busy)
srun: Job 662414 step creation still disabled, retrying (Requested nodes are busy)
srun: Job 662414 step creation still disabled, retrying (Requested nodes are busy)
srun: Job 662414 step creation still disabled, retrying (Requested nodes are busy)
srun: Job 662414 step creation still disabled, retrying (Requested nodes are busy)
srun: Job 662414 step creation still disabled, retrying (Requested nodes are busy)
srun: Job 662414 step creation still disabled, retrying (Requested nodes are busy)
srun: Job 662414 step creation still disabled, retrying (Requested nodes are busy)
srun: Job 662414 step creation still disabled, retrying (Requested nodes are busy)
srun: Step created for StepId=662414.80

 *******************************************************************************
 *                                                                             *
 *  --------------------------------                                           *
 *   Amsterdam Modeling Suite (AMS)              2026.103                      *
 *  --------------------------------                                           *
 *                                               r260501 2026-05-01 873454b5   *
 *                                                                             *
 *                                                                             *
 *                              =================                              *
 *                              |               |                              *
 *                              |     A M S     |                              *
 *                              |               |                              *
 *                              =================                              *
 *                                                                             *
 *                                                                             *
 *   Online information and documentation:  https://www.scm.com/support/       *
 *   E-mail:  support@scm.com   info@scm.com                                   *
 *                                                                             *
 *   Scientific publications using AMS results must be properly referenced     *
 *   See the User Manuals (or the web site) for recommended citations          *
 *   The terms and conditions of the End User License Agreement apply to       *
 *   the use of AMS, https://www.scm.com/license-terms/                        *
 *                                                                             *
 **********************  x86_64_linux_intel / intelmpi  ************************
 
 Licensed to: Jong-June Jeon / University of Seoul 2026-06-02 13:44:15
 SCM User ID: u30731
  
 AMS 2026.103  RunTime: Jun03-2026 17:30:45  ShM Nodes: 1  Procs: 1

 AMS jobname: c2_fragB_ts
 AMS jobid  : 854146724

 Start   directory: /gpfs/home1/yeseo1ee/projects/eda-asm-prediction/ADF_800/adf_outputs/batch_003/qmrxn20_e2_A_E_E_E_C_B/
 Results directory: /gpfs/home1/yeseo1ee/projects/eda-asm-prediction/ADF_800/adf_outputs/batch_003/qmrxn20_e2_A_E_E_E_C_B/c2_fragB_ts.results/
 Scratch directory: /tmp/amstmp_c2_fragB_ts_kid0.854146724/

 RNG seed: -2060019514 -770551160 -958308781 739418573 1613671409 -211150491 542595507 -1046598244



                      ************************************************************************
                      *  ADF 2026.103  RunTime: Jun03-2026 17:30:46  ShM Nodes: 1  Procs: 1  *
                      ************************************************************************
  

       ****************************
       * SINGLE POINT CALCULATION *
       ****************************

--------
Geometry
--------
Formula: C2H7BrN3
Atoms
  Index Symbol   x (angstrom)   y (angstrom)   z (angstrom)
      1      C    -0.25568297     0.03470467    -0.26647317
      2      C    -0.06798986    -0.12254569     1.14758007
      3     Br     1.80650068     0.36095412    -1.23720051
      4      H    -0.48880933    -0.89472442    -0.78812680
      5      N    -1.02961280     1.12960689    -0.76941408
      6      H    -0.62447701     1.97970246    -0.39174565
      7      H    -1.92909700     1.01397142    -0.29475329
      8      N     0.38671964     1.04777394     1.86452517
      9      H    -0.40852460     1.62151721     2.11303125
     10      H     1.02571179     1.58531537     1.28344616
     11      N     0.61156420    -1.32328136     1.59346714
     12      H     0.17685697    -2.12132440     1.14133544
     13      H     1.57123229    -1.28045348     1.24614106

Total System Charge              0.00000


----------------
ADF Engine Input
----------------
 
   Basis
     Type TZ2P
     Core None
   End
   XC
     GGA BLYP
     Dispersion GRIMME3 BJDAMP
   End
   Symmetry NOSYM
   NumericalQuality Normal
   Unrestricted No
   SCF
     Iterations 200
     Converge 1.0e-6
   End
   Save TAPE21
 

 Title: *** (NO TITLE) ***

 *** adf ***



 ===========================
 A T T A C H E D   F I L E S
 ===========================
  



 ===============================
 M O D E L   P A R A M E T E R S
 ===============================
  
 DENSITY FUNCTIONAL POTENTIAL (scf)
    LDA:                               Exchange only                           == Not Default ==
    Gradient Corrections:              Becke88 LYP                             == Not Default ==

 SPIN  (restricted / unrestr.)
    Molecule:                          Restricted                               
    Fragments:                         Restricted                               

 OTHER ASPECTS
    Relativistic Corrections:          scalar (ZORA,MAPA)                       

    Nuclear Charge Density Model:      Point Charge Nuclei                      
    Core Treatment:                    Frozen Orbital(s)                        

    Hyperfine or Zeeman Interaction:   ---                                      

 Settings for Grimme D3 dispersion correction

      damping                        BJ
      s6                          1.000
      s8                          2.700
      a1                          0.430
      a2                          4.236

 Other (technical) parameters

      alpha                      14.000
      version                         4
 


 Fragment File(s)
 ----------------
 C:
         file : /gpfs/home1/yeseo1ee/projects/eda-asm-prediction/ADF_800/adf_outputs/batch_003/qmrxn20_e2_A_E_E_E_C_B/c2_fragB_ts.results/t21.50BA88D5.C
         jobid: 0
         title: Carbon (TZ2P)
 Br:
         file : /gpfs/home1/yeseo1ee/projects/eda-asm-prediction/ADF_800/adf_outputs/batch_003/qmrxn20_e2_A_E_E_E_C_B/c2_fragB_ts.results/t21.42F58B50.Br
         jobid: 0
         title: Bromine (TZ2P)
 H:
         file : /gpfs/home1/yeseo1ee/projects/eda-asm-prediction/ADF_800/adf_outputs/batch_003/qmrxn20_e2_A_E_E_E_C_B/c2_fragB_ts.results/t21.6F35CCAB.H
         jobid: 0
         title: Hydrogen (TZ2P)
 N:
         file : /gpfs/home1/yeseo1ee/projects/eda-asm-prediction/ADF_800/adf_outputs/batch_003/qmrxn20_e2_A_E_E_E_C_B/c2_fragB_ts.results/t21.44EAA48D.N
         jobid: 0
         title: Nitrogen (TZ2P)



 ===============
 G E O M E T R Y  ***  3D  Molecule  ***
 ===============
  

 ATOMS
 =====                            X Y Z                    CHARGE
                                (Angstrom)             Nucl     +Core       At.Mass
                       --------------------------    ----------------       -------
    1  C              -0.2557    0.0347   -0.2665      6.00      6.00       12.0000
    2  C              -0.0680   -0.1225    1.1476      6.00      6.00       12.0000
    3  Br              1.8065    0.3610   -1.2372     35.00     35.00       78.9183
    4  H              -0.4888   -0.8947   -0.7881      1.00      1.00        1.0078
    5  N              -1.0296    1.1296   -0.7694      7.00      7.00       14.0031
    6  H              -0.6245    1.9797   -0.3917      1.00      1.00        1.0078
    7  H              -1.9291    1.0140   -0.2948      1.00      1.00        1.0078
    8  N               0.3867    1.0478    1.8645      7.00      7.00       14.0031
    9  H              -0.4085    1.6215    2.1130      1.00      1.00        1.0078
   10  H               1.0257    1.5853    1.2834      1.00      1.00        1.0078
   11  N               0.6116   -1.3233    1.5935      7.00      7.00       14.0031
   12  H               0.1769   -2.1213    1.1413      1.00      1.00        1.0078
   13  H               1.5712   -1.2805    1.2461      1.00      1.00        1.0078


 FRAGMENTS
 =========                                     Atoms in this Fragment     Cart. coord.s (Angstrom)
                                               -------------------------------------------------------
    1  C                                                 1  C           -0.2557    0.0347   -0.2665
    2  C                                                 2  C           -0.0680   -0.1225    1.1476
    3  Br                                                3  Br           1.8065    0.3610   -1.2372
    4  H                                                 4  H           -0.4888   -0.8947   -0.7881
    5  H                                                 6  H           -0.6245    1.9797   -0.3917
    6  H                                                 7  H           -1.9291    1.0140   -0.2948
    7  H                                                 9  H           -0.4085    1.6215    2.1130
    8  H                                                10  H            1.0257    1.5853    1.2834
    9  H                                                12  H            0.1769   -2.1213    1.1413
   10  H                                                13  H            1.5712   -1.2805    1.2461
   11  N                                                 5  N           -1.0296    1.1296   -0.7694
   12  N                                                 8  N            0.3867    1.0478    1.8645
   13  N                                                11  N            0.6116   -1.3233    1.5935


 Interatomic Distance Matrix (Angstrom)
 --------------------------------------

   1)     0.000
   2)     1.435   0.000
   3)     2.302   3.072   0.000
   4)     1.091   2.126   2.655   0.000
   5)     1.432   2.483   2.975   2.095   0.000
   6)     1.984   2.664   3.041   2.905   1.015   0.000
   7)     1.939   2.615   3.908   2.442   1.024   1.626   0.000
   8)     2.445   1.446   3.480   3.402   2.992   2.642   3.166   0.000
   9)     2.864   2.022   4.209   3.841   2.989   2.539   2.912   1.012   0.000
  10)     2.539   2.033   2.909   3.569   2.940   2.384   3.398   1.017   1.657   0.000
  11)     2.461   1.450   3.504   2.658   3.781   4.047   3.935   2.397   3.159   2.954
          0.000
  12)     2.611   2.014   3.805   2.381   3.959   4.451   4.041   3.257   3.911   3.805
          1.015   0.000
  13)     2.712   2.009   2.986   2.921   4.079   4.258   4.460   2.684   3.618   2.917
          1.021   1.632   0.000

 Min. Distance =    1.0116
 Max. Distance =    4.4599



 =====================================
 S Y M M E T R Y ,   E L E C T R O N S
 =====================================
  
 Symmetry: NOSYM

 Irreducible Representations, including subspecies
 -------------------------------------------------
 A


 Configuration of Valence Electrons
 ==================================
 ( determined in the SCF procedure )

 Total:   75

 ===============
 W A R N I N G :
 ===============

 The number of electrons does not correspond to doubly occupied orbitals,
 i.e. there would be one orbital with 0.5-alpha and 0.5-beta electrons.

 Normally, this corresponds to a doublet that should be treated within
 the UNRESTRICTED framework. For example, for a doublet:

   CHARGE   0.0 1.0
   Unrestricted

 See the online manual (http://www.scm.com) for more information on
 how to use the UNRESTRICTED framework.

 If you are definitely certain that for this job the restricted open-shell
 is appropriate, you can overcome this warning by placing on input:
   ALLOW ROKS

 In case of doubt, contact support@scm.com with this problem.

 Net Charge: 0 (Nuclei minus Electrons)

 Aufbau principle for MO occupations will be applied through SCF cycle no.     100
 Thereafter, the program will assign electrons to MOs that are spatially
 similar to the occupied MOs in a "reference" cycle ("KeepOrbitals").
 The reference cycle is always the PREVIOUS cycle: it will evolve with
 the SCF procedure.
 ***************************************************************************************************



                                      ****************************************
                                      *  B U I L D : (Fragments, Functions)  *
                                      ****************************************
  



 =======
 S F O s  ***  (Symmetrized Fragment Orbitals)  ***
 =======
  
 SFOs are linear combinations of (valence) Fragment Orbitals (FOs), such that the SFOs transform as the
 irreducible representations of the (molecular) symmetry group. Each SFO is therefore characterized by
 an irrep of the molecule and by a few (or only one) generating FOs.
 The SFOs constitute a symmetry-adapted basis for the Fock matrix. The MO eigenvector coefficients in
 this basis provide a direct interpretation of the MOs in terms of Frontier Orbital Theory.

 The SFOs are combined with auxiliary Core Functions (CFs) to ensure orthogonalization on the (frozen)
 Core Orbitals (COs). The Core-orthogonalized SFOs (CSFOs) constitute the true Fock basis.

 The FOs, and hence also the (C)SFOs are combinations of the elementary basis functions (BAS). The basis
 functions that participate in the description of the SFOs depend on the irrep. The indices of the
 involved functions are printed below for each irrep.
 (The complete list of primitive basis functions is printed in another section)

 Total nr. of (C)SFOs (summation over all irreps) :   263

 NOTE: a (C)SFO that is defined as a combination of more than one FO is usually NOT normalized.



                                       === A ===
 Nr. of SFOs :  263
 Cartesian basis functions that participate in this irrep (total number =   297) :
      1     2     3     4     5     6     9    12     7    10
     13     8    11    14    15    16    17    18    19    20
     21    22    23    24    25    26    27    28    29    30
     31    32    33    34    35    36    39    42    37    40
     43    38    41    44    45    46    47    48    49    50
     51    52    53    54    55    56    57    58    59    60
     61    62    63    70    71    96    97    98    64    67
     72    75    99   102   105    65    68    73    76   100
    103   106    66    69    74    77   101   104   107    78
     84    90   108    79    85    91   109    80    86    92
    110    81    87    93   111    82    88    94   112    83
     89    95   113   114   115   116   117   118   119   120
    121   122   123   124   125   126   127   128   129   130
    131   132   133   134   135   136   137   138   139   140
    141   142   143   144   145   146   147   148   149   150
    151   152   153   154   155   156   157   158   159   160
    161   162   163   164   165   166   167   168   169   170
    171   172   173   174   175   176   177   178   179   180
    181   182   183   184   185   186   187   188   189   190
    191   192   193   194   195   196   197   198   199   200
    201   202   203   204   205   206   207   208   209   210
    211   212   213   216   219   214   217   220   215   218
    221   222   223   224   225   226   227   228   229   230
    231   232   233   234   235   236   237   238   239   240
    241   242   243   246   249   244   247   250   245   248
    251   252   253   254   255   256   257   258   259   260
    261   262   263   264   265   266   267   268   269   270
    271   272   273   276   279   274   277   280   275   278
    281   282   283   284   285   286   287   288   289   290
    291   292   293   294   295   296   297

    SFO  (index         Fragment          Generating    Expansion in Fragment Orbitals
  indx  incl.CFs)   Occup   Orb.Energy   FragmentType  Coeff.   Orbital     on Fragment
 --------------------------------------------------------------------------------------
     1       1      2.000     -10.066 au  C             1.00      1 S               1
                        (    -273.921 eV)
     2       2      2.000      -0.501 au  C             1.00      2 S               1
                        (     -13.620 eV)
     3       3       --         0.373 au  C             1.00      3 S               1
                        (      10.158 eV)
     4       4       --         5.405 au  C             1.00      4 S               1
                        (     147.073 eV)
     5       5       --        49.848 au  C             1.00      5 S               1
                        (    1356.422 eV)
     6       6      0.667      -0.193 au  C             1.00      1 P:x             1
                        (      -5.239 eV)
     7       7       --         0.169 au  C             1.00      2 P:x             1
                        (       4.589 eV)
     8       8       --         2.013 au  C             1.00      3 P:x             1
                        (      54.789 eV)
     9       9      0.667      -0.193 au  C             1.00      1 P:y             1
                        (      -5.239 eV)
    10      10       --         0.169 au  C             1.00      2 P:y             1
                        (       4.589 eV)
    11      11       --         2.013 au  C             1.00      3 P:y             1
                        (      54.789 eV)
    12      12      0.667      -0.193 au  C             1.00      1 P:z             1
                        (      -5.239 eV)
    13      13       --         0.169 au  C             1.00      2 P:z             1
                        (       4.589 eV)
    14      14       --         2.013 au  C             1.00      3 P:z             1
                        (      54.789 eV)
    15      15       --         1.243 au  C             1.00      1 D:z2            1
                        (      33.824 eV)
    16      16       --         1.243 au  C             1.00      1 D:x2-y2         1
                        (      33.824 eV)
    17      17       --         1.243 au  C             1.00      1 D:xy            1
                        (      33.824 eV)
    18      18       --         1.243 au  C             1.00      1 D:xz            1
                        (      33.824 eV)
    19      19       --         1.243 au  C             1.00      1 D:yz            1
                        (      33.824 eV)
    20      20       --         4.016 au  C             1.00      1 F:z3            1
                        (     109.271 eV)
    21      21       --         4.016 au  C             1.00      1 F:z             1
                        (     109.271 eV)
    22      22       --         4.016 au  C             1.00      1 F:xyz           1
                        (     109.271 eV)
    23      23       --         4.016 au  C             1.00      1 F:z2x           1
                        (     109.271 eV)
    24      24       --         4.016 au  C             1.00      1 F:z2y           1
                        (     109.271 eV)
    25      25       --         4.016 au  C             1.00      1 F:x             1
                        (     109.271 eV)
    26      26       --         4.016 au  C             1.00      1 F:y             1
                        (     109.271 eV)
    27      27      2.000     -10.066 au  C             1.00      1 S               2
                        (    -273.921 eV)
    28      28      2.000      -0.501 au  C             1.00      2 S               2
                        (     -13.620 eV)
    29      29       --         0.373 au  C             1.00      3 S               2
                        (      10.158 eV)
    30      30       --         5.405 au  C             1.00      4 S               2
                        (     147.073 eV)
    31      31       --        49.848 au  C             1.00      5 S               2
                        (    1356.422 eV)
    32      32      0.667      -0.193 au  C             1.00      1 P:x             2
                        (      -5.239 eV)
    33      33       --         0.169 au  C             1.00      2 P:x             2
                        (       4.589 eV)
    34      34       --         2.013 au  C             1.00      3 P:x             2
                        (      54.789 eV)
    35      35      0.667      -0.193 au  C             1.00      1 P:y             2
                        (      -5.239 eV)
    36      36       --         0.169 au  C             1.00      2 P:y             2
                        (       4.589 eV)
    37      37       --         2.013 au  C             1.00      3 P:y             2
                        (      54.789 eV)
    38      38      0.667      -0.193 au  C             1.00      1 P:z             2
                        (      -5.239 eV)
    39      39       --         0.169 au  C             1.00      2 P:z             2
                        (       4.589 eV)
    40      40       --         2.013 au  C             1.00      3 P:z             2
                        (      54.789 eV)
    41      41       --         1.243 au  C             1.00      1 D:z2            2
                        (      33.824 eV)
    42      42       --         1.243 au  C             1.00      1 D:x2-y2         2
                        (      33.824 eV)
    43      43       --         1.243 au  C             1.00      1 D:xy            2
                        (      33.824 eV)
    44      44       --         1.243 au  C             1.00      1 D:xz            2
                        (      33.824 eV)
    45      45       --         1.243 au  C             1.00      1 D:yz            2
                        (      33.824 eV)
    46      46       --         4.016 au  C             1.00      1 F:z3            2
                        (     109.271 eV)
    47      47       --         4.016 au  C             1.00      1 F:z             2
                        (     109.271 eV)
    48      48       --         4.016 au  C             1.00      1 F:xyz           2
                        (     109.271 eV)
    49      49       --         4.016 au  C             1.00      1 F:z2x           2
                        (     109.271 eV)
    50      50       --         4.016 au  C             1.00      1 F:z2y           2
                        (     109.271 eV)
    51      51       --         4.016 au  C             1.00      1 F:x             2
                        (     109.271 eV)
    52      52       --         4.016 au  C             1.00      1 F:y             2
                        (     109.271 eV)
    53      53      2.000    -488.642 au  Br            1.00      1 S               3
                        (  -13296.634 eV)
    54      54      2.000     -63.585 au  Br            1.00      2 S               3
                        (   -1730.246 eV)
    55      55      2.000      -8.709 au  Br            1.00      3 S               3
                        (    -236.987 eV)
    56      56      2.000      -0.733 au  Br            1.00      4 S               3
                        (     -19.946 eV)
    57      57       --         0.224 au  Br            1.00      5 S               3
                        (       6.099 eV)
    58      58       --         2.414 au  Br            1.00      6 S               3
                        (      65.683 eV)
    59      59       --        13.546 au  Br            1.00      7 S               3
                        (     368.609 eV)
    60      60       --       615.209 au  Br            1.00      8 S               3
                        (   16740.684 eV)
    61      61      2.000     -56.116 au  Br            1.00      1 P:x             3
                        (   -1526.987 eV)
    62      62      2.000      -6.365 au  Br            1.00      2 P:x             3
                        (    -173.205 eV)
    63      63      1.667      -0.284 au  Br            1.00      3 P:x             3
                        (      -7.716 eV)
    64      64       --         0.137 au  Br            1.00      4 P:x             3
                        (       3.720 eV)
    65      65       --         1.208 au  Br            1.00      5 P:x             3
                        (      32.874 eV)
    66      66       --         8.734 au  Br            1.00      6 P:x             3
                        (     237.661 eV)
    67      67       --        95.627 au  Br            1.00      7 P:x             3
                        (    2602.141 eV)
    68      68      2.000     -56.116 au  Br            1.00      1 P:y             3
                        (   -1526.987 eV)
    69      69      2.000      -6.365 au  Br            1.00      2 P:y             3
                        (    -173.205 eV)
    70      70      1.667      -0.284 au  Br            1.00      3 P:y             3
                        (      -7.716 eV)
    71      71       --         0.137 au  Br            1.00      4 P:y             3
                        (       3.720 eV)
    72      72       --         1.208 au  Br            1.00      5 P:y             3
                        (      32.874 eV)
    73      73       --         8.734 au  Br            1.00      6 P:y             3
                        (     237.661 eV)
    74      74       --        95.627 au  Br            1.00      7 P:y             3
                        (    2602.141 eV)
    75      75      2.000     -56.116 au  Br            1.00      1 P:z             3
                        (   -1526.987 eV)
    76      76      2.000      -6.365 au  Br            1.00      2 P:z             3
                        (    -173.205 eV)
    77      77      1.667      -0.284 au  Br            1.00      3 P:z             3
                        (      -7.716 eV)
    78      78       --         0.137 au  Br            1.00      4 P:z             3
                        (       3.720 eV)
    79      79       --         1.208 au  Br            1.00      5 P:z             3
                        (      32.874 eV)
    80      80       --         8.734 au  Br            1.00      6 P:z             3
                        (     237.661 eV)
    81      81       --        95.627 au  Br            1.00      7 P:z             3
                        (    2602.141 eV)
    82      82      2.000      -2.452 au  Br            1.00      1 D:z2            3
                        (     -66.719 eV)
    83      83       --         0.270 au  Br            1.00      2 D:z2            3
                        (       7.341 eV)
    84      84       --         2.706 au  Br            1.00      3 D:z2            3
                        (      73.633 eV)
    85      85       --        20.525 au  Br            1.00      4 D:z2            3
                        (     558.519 eV)
    86      86      2.000      -2.452 au  Br            1.00      1 D:x2-y2         3
                        (     -66.719 eV)
    87      87       --         0.270 au  Br            1.00      2 D:x2-y2         3
                        (       7.341 eV)
    88      88       --         2.706 au  Br            1.00      3 D:x2-y2         3
                        (      73.633 eV)
    89      89       --        20.525 au  Br            1.00      4 D:x2-y2         3
                        (     558.519 eV)
    90      90      2.000      -2.452 au  Br            1.00      1 D:xy            3
                        (     -66.719 eV)
    91      91       --         0.270 au  Br            1.00      2 D:xy            3
                        (       7.341 eV)
    92      92       --         2.706 au  Br            1.00      3 D:xy            3
                        (      73.633 eV)
    93      93       --        20.525 au  Br            1.00      4 D:xy            3
                        (     558.519 eV)
    94      94      2.000      -2.452 au  Br            1.00      1 D:xz            3
                        (     -66.719 eV)
    95      95       --         0.270 au  Br            1.00      2 D:xz            3
                        (       7.341 eV)
    96      96       --         2.706 au  Br            1.00      3 D:xz            3
                        (      73.633 eV)
    97      97       --        20.525 au  Br            1.00      4 D:xz            3
                        (     558.519 eV)
    98      98      2.000      -2.452 au  Br            1.00      1 D:yz            3
                        (     -66.719 eV)
    99      99       --         0.270 au  Br            1.00      2 D:yz            3
                        (       7.341 eV)
   100     100       --         2.706 au  Br            1.00      3 D:yz            3
                        (      73.633 eV)
   101     101       --        20.525 au  Br            1.00      4 D:yz            3
                        (     558.519 eV)
   102     102       --         0.857 au  Br            1.00      1 F:z3            3
                        (      23.313 eV)
   103     103       --         0.857 au  Br            1.00      1 F:z             3
                        (      23.313 eV)
   104     104       --         0.857 au  Br            1.00      1 F:xyz           3
                        (      23.313 eV)
   105     105       --         0.857 au  Br            1.00      1 F:z2x           3
                        (      23.313 eV)
   106     106       --         0.857 au  Br            1.00      1 F:z2y           3
                        (      23.313 eV)
   107     107       --         0.857 au  Br            1.00      1 F:x             3
                        (      23.313 eV)
   108     108       --         0.857 au  Br            1.00      1 F:y             3
                        (      23.313 eV)
   109     109      1.000      -0.240 au  H             1.00      1 S               4
                        (      -6.532 eV)
   110     110       --         0.088 au  H             1.00      2 S               4
                        (       2.394 eV)
   111     111       --         1.502 au  H             1.00      3 S               4
                        (      40.869 eV)
   112     112       --         0.406 au  H             1.00      1 P:x             4
                        (      11.051 eV)
   113     113       --         0.406 au  H             1.00      1 P:y             4
                        (      11.051 eV)
   114     114       --         0.406 au  H             1.00      1 P:z             4
                        (      11.051 eV)
   115     115       --         2.569 au  H             1.00      1 D:z2            4
                        (      69.917 eV)
   116     116       --         2.569 au  H             1.00      1 D:x2-y2         4
                        (      69.917 eV)
   117     117       --         2.569 au  H             1.00      1 D:xy            4
                        (      69.917 eV)
   118     118       --         2.569 au  H             1.00      1 D:xz            4
                        (      69.917 eV)
   119     119       --         2.569 au  H             1.00      1 D:yz            4
                        (      69.917 eV)
   120     120      1.000      -0.240 au  H             1.00      1 S               5
                        (      -6.532 eV)
   121     121       --         0.088 au  H             1.00      2 S               5
                        (       2.394 eV)
   122     122       --         1.502 au  H             1.00      3 S               5
                        (      40.869 eV)
   123     123       --         0.406 au  H             1.00      1 P:x             5
                        (      11.051 eV)
   124     124       --         0.406 au  H             1.00      1 P:y             5
                        (      11.051 eV)
   125     125       --         0.406 au  H             1.00      1 P:z             5
                        (      11.051 eV)
   126     126       --         2.569 au  H             1.00      1 D:z2            5
                        (      69.917 eV)
   127     127       --         2.569 au  H             1.00      1 D:x2-y2         5
                        (      69.917 eV)
   128     128       --         2.569 au  H             1.00      1 D:xy            5
                        (      69.917 eV)
   129     129       --         2.569 au  H             1.00      1 D:xz            5
                        (      69.917 eV)
   130     130       --         2.569 au  H             1.00      1 D:yz            5
                        (      69.917 eV)
   131     131      1.000      -0.240 au  H             1.00      1 S               6
                        (      -6.532 eV)
   132     132       --         0.088 au  H             1.00      2 S               6
                        (       2.394 eV)
   133     133       --         1.502 au  H             1.00      3 S               6
                        (      40.869 eV)
   134     134       --         0.406 au  H             1.00      1 P:x             6
                        (      11.051 eV)
   135     135       --         0.406 au  H             1.00      1 P:y             6
                        (      11.051 eV)
   136     136       --         0.406 au  H             1.00      1 P:z             6
                        (      11.051 eV)
   137     137       --         2.569 au  H             1.00      1 D:z2            6
                        (      69.917 eV)
   138     138       --         2.569 au  H             1.00      1 D:x2-y2         6
                        (      69.917 eV)
   139     139       --         2.569 au  H             1.00      1 D:xy            6
                        (      69.917 eV)
   140     140       --         2.569 au  H             1.00      1 D:xz            6
                        (      69.917 eV)
   141     141       --         2.569 au  H             1.00      1 D:yz            6
                        (      69.917 eV)
   142     142      1.000      -0.240 au  H             1.00      1 S               7
                        (      -6.532 eV)
   143     143       --         0.088 au  H             1.00      2 S               7
                        (       2.394 eV)
   144     144       --         1.502 au  H             1.00      3 S               7
                        (      40.869 eV)
   145     145       --         0.406 au  H             1.00      1 P:x             7
                        (      11.051 eV)
   146     146       --         0.406 au  H             1.00      1 P:y             7
                        (      11.051 eV)
   147     147       --         0.406 au  H             1.00      1 P:z             7
                        (      11.051 eV)
   148     148       --         2.569 au  H             1.00      1 D:z2            7
                        (      69.917 eV)
   149     149       --         2.569 au  H             1.00      1 D:x2-y2         7
                        (      69.917 eV)
   150     150       --         2.569 au  H             1.00      1 D:xy            7
                        (      69.917 eV)
   151     151       --         2.569 au  H             1.00      1 D:xz            7
                        (      69.917 eV)
   152     152       --         2.569 au  H             1.00      1 D:yz            7
                        (      69.917 eV)
   153     153      1.000      -0.240 au  H             1.00      1 S               8
                        (      -6.532 eV)
   154     154       --         0.088 au  H             1.00      2 S               8
                        (       2.394 eV)
   155     155       --         1.502 au  H             1.00      3 S               8
                        (      40.869 eV)
   156     156       --         0.406 au  H             1.00      1 P:x             8
                        (      11.051 eV)
   157     157       --         0.406 au  H             1.00      1 P:y             8
                        (      11.051 eV)
   158     158       --         0.406 au  H             1.00      1 P:z             8
                        (      11.051 eV)
   159     159       --         2.569 au  H             1.00      1 D:z2            8
                        (      69.917 eV)
   160     160       --         2.569 au  H             1.00      1 D:x2-y2         8
                        (      69.917 eV)
   161     161       --         2.569 au  H             1.00      1 D:xy            8
                        (      69.917 eV)
   162     162       --         2.569 au  H             1.00      1 D:xz            8
                        (      69.917 eV)
   163     163       --         2.569 au  H             1.00      1 D:yz            8
                        (      69.917 eV)
   164     164      1.000      -0.240 au  H             1.00      1 S               9
                        (      -6.532 eV)
   165     165       --         0.088 au  H             1.00      2 S               9
                        (       2.394 eV)
   166     166       --         1.502 au  H             1.00      3 S               9
                        (      40.869 eV)
   167     167       --         0.406 au  H             1.00      1 P:x             9
                        (      11.051 eV)
   168     168       --         0.406 au  H             1.00      1 P:y             9
                        (      11.051 eV)
   169     169       --         0.406 au  H             1.00      1 P:z             9
                        (      11.051 eV)
   170     170       --         2.569 au  H             1.00      1 D:z2            9
                        (      69.917 eV)
   171     171       --         2.569 au  H             1.00      1 D:x2-y2         9
                        (      69.917 eV)
   172     172       --         2.569 au  H             1.00      1 D:xy            9
                        (      69.917 eV)
   173     173       --         2.569 au  H             1.00      1 D:xz            9
                        (      69.917 eV)
   174     174       --         2.569 au  H             1.00      1 D:yz            9
                        (      69.917 eV)
   175     175      1.000      -0.240 au  H             1.00      1 S              10
                        (      -6.532 eV)
   176     176       --         0.088 au  H             1.00      2 S              10
                        (       2.394 eV)
   177     177       --         1.502 au  H             1.00      3 S              10
                        (      40.869 eV)
   178     178       --         0.406 au  H             1.00      1 P:x            10
                        (      11.051 eV)
   179     179       --         0.406 au  H             1.00      1 P:y            10
                        (      11.051 eV)
   180     180       --         0.406 au  H             1.00      1 P:z            10
                        (      11.051 eV)
   181     181       --         2.569 au  H             1.00      1 D:z2           10
                        (      69.917 eV)
   182     182       --         2.569 au  H             1.00      1 D:x2-y2        10
                        (      69.917 eV)
   183     183       --         2.569 au  H             1.00      1 D:xy           10
                        (      69.917 eV)
   184     184       --         2.569 au  H             1.00      1 D:xz           10
                        (      69.917 eV)
   185     185       --         2.569 au  H             1.00      1 D:yz           10
                        (      69.917 eV)
   186     186      2.000     -14.160 au  N             1.00      1 S              11
                        (    -385.319 eV)
   187     187      2.000      -0.678 au  N             1.00      2 S              11
                        (     -18.450 eV)
   188     188       --         0.517 au  N             1.00      3 S              11
                        (      14.073 eV)
   189     189       --         6.872 au  N             1.00      4 S              11
                        (     186.990 eV)
   190     190       --        63.432 au  N             1.00      5 S              11
                        (    1726.082 eV)
   191     191      1.000      -0.260 au  N             1.00      1 P:x            11
                        (      -7.062 eV)
   192     192       --         0.281 au  N             1.00      2 P:x            11
                        (       7.649 eV)
   193     193       --         3.275 au  N             1.00      3 P:x            11
                        (      89.105 eV)
   194     194      1.000      -0.260 au  N             1.00      1 P:y            11
                        (      -7.062 eV)
   195     195       --         0.281 au  N             1.00      2 P:y            11
                        (       7.649 eV)
   196     196       --         3.275 au  N             1.00      3 P:y            11
                        (      89.105 eV)
   197     197      1.000      -0.260 au  N             1.00      1 P:z            11
                        (      -7.062 eV)
   198     198       --         0.281 au  N             1.00      2 P:z            11
                        (       7.649 eV)
   199     199       --         3.275 au  N             1.00      3 P:z            11
                        (      89.105 eV)
   200     200       --         1.250 au  N             1.00      1 D:z2           11
                        (      34.005 eV)
   201     201       --         1.250 au  N             1.00      1 D:x2-y2        11
                        (      34.005 eV)
   202     202       --         1.250 au  N             1.00      1 D:xy           11
                        (      34.005 eV)
   203     203       --         1.250 au  N             1.00      1 D:xz           11
                        (      34.005 eV)
   204     204       --         1.250 au  N             1.00      1 D:yz           11
                        (      34.005 eV)
   205     205       --         4.013 au  N             1.00      1 F:z3           11
                        (     109.190 eV)
   206     206       --         4.013 au  N             1.00      1 F:z            11
                        (     109.190 eV)
   207     207       --         4.013 au  N             1.00      1 F:xyz          11
                        (     109.190 eV)
   208     208       --         4.013 au  N             1.00      1 F:z2x          11
                        (     109.190 eV)
   209     209       --         4.013 au  N             1.00      1 F:z2y          11
                        (     109.190 eV)
   210     210       --         4.013 au  N             1.00      1 F:x            11
                        (     109.190 eV)
   211     211       --         4.013 au  N             1.00      1 F:y            11
                        (     109.190 eV)
   212     212      2.000     -14.160 au  N             1.00      1 S              12
                        (    -385.319 eV)
   213     213      2.000      -0.678 au  N             1.00      2 S              12
                        (     -18.450 eV)
   214     214       --         0.517 au  N             1.00      3 S              12
                        (      14.073 eV)
   215     215       --         6.872 au  N             1.00      4 S              12
                        (     186.990 eV)
   216     216       --        63.432 au  N             1.00      5 S              12
                        (    1726.082 eV)
   217     217      1.000      -0.260 au  N             1.00      1 P:x            12
                        (      -7.062 eV)
   218     218       --         0.281 au  N             1.00      2 P:x            12
                        (       7.649 eV)
   219     219       --         3.275 au  N             1.00      3 P:x            12
                        (      89.105 eV)
   220     220      1.000      -0.260 au  N             1.00      1 P:y            12
                        (      -7.062 eV)
   221     221       --         0.281 au  N             1.00      2 P:y            12
                        (       7.649 eV)
   222     222       --         3.275 au  N             1.00      3 P:y            12
                        (      89.105 eV)
   223     223      1.000      -0.260 au  N             1.00      1 P:z            12
                        (      -7.062 eV)
   224     224       --         0.281 au  N             1.00      2 P:z            12
                        (       7.649 eV)
   225     225       --         3.275 au  N             1.00      3 P:z            12
                        (      89.105 eV)
   226     226       --         1.250 au  N             1.00      1 D:z2           12
                        (      34.005 eV)
   227     227       --         1.250 au  N             1.00      1 D:x2-y2        12
                        (      34.005 eV)
   228     228       --         1.250 au  N             1.00      1 D:xy           12
                        (      34.005 eV)
   229     229       --         1.250 au  N             1.00      1 D:xz           12
                        (      34.005 eV)
   230     230       --         1.250 au  N             1.00      1 D:yz           12
                        (      34.005 eV)
   231     231       --         4.013 au  N             1.00      1 F:z3           12
                        (     109.190 eV)
   232     232       --         4.013 au  N             1.00      1 F:z            12
                        (     109.190 eV)
   233     233       --         4.013 au  N             1.00      1 F:xyz          12
                        (     109.190 eV)
   234     234       --         4.013 au  N             1.00      1 F:z2x          12
                        (     109.190 eV)
   235     235       --         4.013 au  N             1.00      1 F:z2y          12
                        (     109.190 eV)
   236     236       --         4.013 au  N             1.00      1 F:x            12
                        (     109.190 eV)
   237     237       --         4.013 au  N             1.00      1 F:y            12
                        (     109.190 eV)
   238     238      2.000     -14.160 au  N             1.00      1 S              13
                        (    -385.319 eV)
   239     239      2.000      -0.678 au  N             1.00      2 S              13
                        (     -18.450 eV)
   240     240       --         0.517 au  N             1.00      3 S              13
                        (      14.073 eV)
   241     241       --         6.872 au  N             1.00      4 S              13
                        (     186.990 eV)
   242     242       --        63.432 au  N             1.00      5 S              13
                        (    1726.082 eV)
   243     243      1.000      -0.260 au  N             1.00      1 P:x            13
                        (      -7.062 eV)
   244     244       --         0.281 au  N             1.00      2 P:x            13
                        (       7.649 eV)
   245     245       --         3.275 au  N             1.00      3 P:x            13
                        (      89.105 eV)
   246     246      1.000      -0.260 au  N             1.00      1 P:y            13
                        (      -7.062 eV)
   247     247       --         0.281 au  N             1.00      2 P:y            13
                        (       7.649 eV)
   248     248       --         3.275 au  N             1.00      3 P:y            13
                        (      89.105 eV)
   249     249      1.000      -0.260 au  N             1.00      1 P:z            13
                        (      -7.062 eV)
   250     250       --         0.281 au  N             1.00      2 P:z            13
                        (       7.649 eV)
   251     251       --         3.275 au  N             1.00      3 P:z            13
                        (      89.105 eV)
   252     252       --         1.250 au  N             1.00      1 D:z2           13
                        (      34.005 eV)
   253     253       --         1.250 au  N             1.00      1 D:x2-y2        13
                        (      34.005 eV)
   254     254       --         1.250 au  N             1.00      1 D:xy           13
                        (      34.005 eV)
   255     255       --         1.250 au  N             1.00      1 D:xz           13
                        (      34.005 eV)
   256     256       --         1.250 au  N             1.00      1 D:yz           13
                        (      34.005 eV)
   257     257       --         4.013 au  N             1.00      1 F:z3           13
                        (     109.190 eV)
   258     258       --         4.013 au  N             1.00      1 F:z            13
                        (     109.190 eV)
   259     259       --         4.013 au  N             1.00      1 F:xyz          13
                        (     109.190 eV)
   260     260       --         4.013 au  N             1.00      1 F:z2x          13
                        (     109.190 eV)
   261     261       --         4.013 au  N             1.00      1 F:z2y          13
                        (     109.190 eV)
   262     262       --         4.013 au  N             1.00      1 F:x            13
                        (     109.190 eV)
   263     263       --         4.013 au  N             1.00      1 F:y            13
                        (     109.190 eV)



 ================================
 (Slater-type)  F U N C T I O N S  ***  (Basis and Fit)  ***
 ================================
  

 Atom Type    1  (C)
 ==============

 Valence Basis Sets:  10
 -----------------------
   1 S    7.680000
   1 S    5.000000
   2 S    1.280000
   2 S    2.100000
   2 S    4.600000
   2 P    0.820000
   2 P    1.480000
   2 P    2.940000
   3 D    2.200000
   4 F    3.300000

 Atom Type    2  (Br)
 ==============

 Valence Basis Sets:  20
 -----------------------
   1 S   41.300000
   1 S   32.800000
   2 S   13.900000
   2 P   19.450000
   2 P   13.100000
   3 S    7.200000
   3 S    4.950000
   3 P    7.900000
   3 P    5.050000
   3 D   10.900000
   3 D    6.050000
   3 D    3.500000
   4 S    4.500000
   4 S    2.800000
   4 S    1.800000
   4 P    3.250000
   4 P    1.950000
   4 P    1.200000
   4 D    1.800000
   4 F    1.800000

 Atom Type    3  (H)
 ==============

 Valence Basis Sets:   5
 -----------------------
   1 S    0.690000
   1 S    0.920000
   1 S    1.580000
   2 P    1.250000
   3 D    2.500000

 Atom Type    4  (N)
 ==============

 Valence Basis Sets:  10
 -----------------------
   1 S    8.740000
   1 S    5.900000
   2 S    5.150000
   2 S    2.500000
   2 S    1.500000
   2 P    3.680000
   2 P    1.880000
   2 P    1.000000
   3 D    2.200000
   4 F    3.300000


 BAS: List of all Elementary Cartesian Basis Functions
 =====================================================

 The numbering in the list below (to the right of the function characteristics) is referred
 to in print-outs of MO eigenvectors and Mulliken populations in the BAS representation
 (as contrasted to the SFO representation).

 Notes:
 1. The functions are characterized by a polynomial prefactor (powers of x,y,z and r) and
    an exponential decay factor alpha.
 2. Since the basis sets are specific for an atom TYPE, the individual functions occur on
    all atoms of that type.
 3. The word 'Core' in the left margin signals that it is a Core Function (CF) : not a
    degree of freedom in the valence set, but only used to ensure orthogonalization of
    the other valence basis functions on the frozen Core Orbitals.


 (power of) X  Y  Z  R     Alpha  on Atom
            ==========     =====     ==========

 C                                    1    2
                                  ---------------------------------------------------------------------------
            0  0  0  0     7.680      1   31
            0  0  0  0     5.000      2   32
            0  0  0  1     1.280      3   33
            0  0  0  1     2.100      4   34
            0  0  0  1     4.600      5   35
            1  0  0  0     0.820      6   36
            0  1  0  0     0.820      7   37
            0  0  1  0     0.820      8   38
            1  0  0  0     1.480      9   39
            0  1  0  0     1.480     10   40
            0  0  1  0     1.480     11   41
            1  0  0  0     2.940     12   42
            0  1  0  0     2.940     13   43
            0  0  1  0     2.940     14   44
            2  0  0  0     2.200     15   45
            1  1  0  0     2.200     16   46
            1  0  1  0     2.200     17   47
            0  2  0  0     2.200     18   48
            0  1  1  0     2.200     19   49
            0  0  2  0     2.200     20   50
            3  0  0  0     3.300     21   51
            2  1  0  0     3.300     22   52
            2  0  1  0     3.300     23   53
            1  2  0  0     3.300     24   54
            1  1  1  0     3.300     25   55
            1  0  2  0     3.300     26   56
            0  3  0  0     3.300     27   57
            0  2  1  0     3.300     28   58
            0  1  2  0     3.300     29   59
            0  0  3  0     3.300     30   60

 Br                                   3
                                  ---------------------------------------------------------------------------
            0  0  0  0    41.300     61
            0  0  0  0    32.800     62
            0  0  0  1    13.900     63
            1  0  0  0    19.450     64
            0  1  0  0    19.450     65
            0  0  1  0    19.450     66
            1  0  0  0    13.100     67
            0  1  0  0    13.100     68
            0  0  1  0    13.100     69
            0  0  0  2     7.200     70
            0  0  0  2     4.950     71
            1  0  0  1     7.900     72
            0  1  0  1     7.900     73
            0  0  1  1     7.900     74
            1  0  0  1     5.050     75
            0  1  0  1     5.050     76
            0  0  1  1     5.050     77
            2  0  0  0    10.900     78
            1  1  0  0    10.900     79
            1  0  1  0    10.900     80
            0  2  0  0    10.900     81
            0  1  1  0    10.900     82
            0  0  2  0    10.900     83
            2  0  0  0     6.050     84
            1  1  0  0     6.050     85
            1  0  1  0     6.050     86
            0  2  0  0     6.050     87
            0  1  1  0     6.050     88
            0  0  2  0     6.050     89
            2  0  0  0     3.500     90
            1  1  0  0     3.500     91
            1  0  1  0     3.500     92
            0  2  0  0     3.500     93
            0  1  1  0     3.500     94
            0  0  2  0     3.500     95
            0  0  0  3     4.500     96
            0  0  0  3     2.800     97
            0  0  0  3     1.800     98
            1  0  0  2     3.250     99
            0  1  0  2     3.250    100
            0  0  1  2     3.250    101
            1  0  0  2     1.950    102
            0  1  0  2     1.950    103
            0  0  1  2     1.950    104
            1  0  0  2     1.200    105
            0  1  0  2     1.200    106
            0  0  1  2     1.200    107
            2  0  0  1     1.800    108
            1  1  0  1     1.800    109
            1  0  1  1     1.800    110
            0  2  0  1     1.800    111
            0  1  1  1     1.800    112
            0  0  2  1     1.800    113
            3  0  0  0     1.800    114
            2  1  0  0     1.800    115
            2  0  1  0     1.800    116
            1  2  0  0     1.800    117
            1  1  1  0     1.800    118
            1  0  2  0     1.800    119
            0  3  0  0     1.800    120
            0  2  1  0     1.800    121
            0  1  2  0     1.800    122
            0  0  3  0     1.800    123

 H                                    4    5    6    7    8    9   10
                                  ---------------------------------------------------------------------------
            0  0  0  0     0.690    124  136  148  160  172  184  196
            0  0  0  0     0.920    125  137  149  161  173  185  197
            0  0  0  0     1.580    126  138  150  162  174  186  198
            1  0  0  0     1.250    127  139  151  163  175  187  199
            0  1  0  0     1.250    128  140  152  164  176  188  200
            0  0  1  0     1.250    129  141  153  165  177  189  201
            2  0  0  0     2.500    130  142  154  166  178  190  202
            1  1  0  0     2.500    131  143  155  167  179  191  203
            1  0  1  0     2.500    132  144  156  168  180  192  204
            0  2  0  0     2.500    133  145  157  169  181  193  205
            0  1  1  0     2.500    134  146  158  170  182  194  206
            0  0  2  0     2.500    135  147  159  171  183  195  207

 N                                   11   12   13
                                  ---------------------------------------------------------------------------
            0  0  0  0     8.740    208  238  268
            0  0  0  0     5.900    209  239  269
            0  0  0  1     5.150    210  240  270
            0  0  0  1     2.500    211  241  271
            0  0  0  1     1.500    212  242  272
            1  0  0  0     3.680    213  243  273
            0  1  0  0     3.680    214  244  274
            0  0  1  0     3.680    215  245  275
            1  0  0  0     1.880    216  246  276
            0  1  0  0     1.880    217  247  277
            0  0  1  0     1.880    218  248  278
            1  0  0  0     1.000    219  249  279
            0  1  0  0     1.000    220  250  280
            0  0  1  0     1.000    221  251  281
            2  0  0  0     2.200    222  252  282
            1  1  0  0     2.200    223  253  283
            1  0  1  0     2.200    224  254  284
            0  2  0  0     2.200    225  255  285
            0  1  1  0     2.200    226  256  286
            0  0  2  0     2.200    227  257  287
            3  0  0  0     3.300    228  258  288
            2  1  0  0     3.300    229  259  289
            2  0  1  0     3.300    230  260  290
            1  2  0  0     3.300    231  261  291
            1  1  1  0     3.300    232  262  292
            1  0  2  0     3.300    233  263  293
            0  3  0  0     3.300    234  264  294
            0  2  1  0     3.300    235  265  295
            0  1  2  0     3.300    236  266  296
            0  0  3  0     3.300    237  267  297

 Total number of charge fitting functions (nprimf)       940
 Total number of Cartesian basis functions (naos)        297
 Total number of Cartesian core functions  (ncos)          0

 ***************************************************************************************************



                                              ***********************
                                              *  T E C H N I C A L  *
                                              ***********************
  



 =============================================================
 P A R A L L E L I Z A T I O N  and  V E C T O R I Z A T I O N
 =============================================================
  
 Nr of parallel processes:                                1
 Maximum vector length in NumInt loops:                 128



 =====================
 S C F   U P D A T E S
 =====================
  
 Max. nr. of cycles:                               200
 Convergence criterion:                              0.0000010000
   secondary criterion:                              0.0010000000

 Mix parameter (when DIIS does not apply):           0.2000000000
 Mixed ADIIS+SDIIS will be used                  
    Max number of expansion vectors:                10
    Pure ADIIS when Max([F,P]) is above              0.1000000000
    Pure SDIIS when Max([F,P]) is below              0.0010000000
 Automatic ElectronSmearing (in case of problematic SCF convergence) disabled



 =================
 P R E C I S I O N  ***  (General: NumInt, NeglectFunctionTails, ...)  ***
 =================
  

 NumInt:           Target precision:                 4.0000000000
 -------           Initial precision:                4.0000000000
                   Min. precision (optimization):    4.0000000000

 Neglect Functions:          Basis functions:        0.1000000000E-05
 ------------------          Fit functions:          0.1000000000E-05



 ===========================
 L I N E A R   S C A L I N G
 ===========================
  

 Cut-off radii density fit:                        0.1000000000E-07
 Overlap cut-off criterion AO matrix elements:     0.1000000000E-05
 Cut-offs for Coulomb potential and fitted density:0.1000000000E-07
 Cut-off criterion for Coulomb multipole terms:    0.1000000000E-07
 Progressive Convergence parameter:                 0.000000000    
 ***************************************************************************************************



                                            ***************************
                                            *  C O M P U T A T I O N  *
                                            ***************************
  

 Number of elements of the density matrix on this node (used, total):     44253     44253



 ===========================================
 Numerical Integration : Fuzzy Cells (Becke)
 ===========================================
  
 Becke grid quality: NORMAL         
  
 Lebedev angular grid order:             min:  11 max:  23
 Nr. of radial points:                   min:  46 max:  77

 Total nr. of points:      87344
 Nr. of blocks:              683
 Block length:               128
 Nr. of dummy points:         80


 Test of Precision of the Numerical Integration Grid
 ===================================================

 Integral of the Total Core Density:                   0.00000000000000



 ========================
 Density Fitting (zlmFit)
 ========================
  
 ZlmFit Fit Quality: NORMAL         
  
 Max L-expansion:                        min:   6 max:   7
 Nr. of radial interpolation points:     min:  39 max:  72



 =====
 S C F  ***  ScaSCF  ***
 =====
  
 Initial density matrix is calculated as sum of fragments

 CYCLE    1
 SCF Error: norm([F,P])=      5.875994434593, max([F,P])=      1.253675051093
 orbitals (Q,E):
 ---------------
 A :28...48          ( 2.00    -0.6066)  ( 2.00    -0.5928)  ( 2.00    -0.5762)  ( 2.00    -0.5306)
                     ( 2.00    -0.4380)  ( 2.00    -0.4129)  ( 2.00    -0.3987)  ( 2.00    -0.3894)
                     ( 2.00    -0.2955)  ( 2.00    -0.2942)  ( 1.00    -0.2735)  ( 0.00    -0.1594)
                     ( 0.00    -0.0750)  ( 0.00    -0.0552)  ( 0.00    -0.0356)  ( 0.00    -0.0222)
                     ( 0.00    -0.0098)  ( 0.00     0.0043)  ( 0.00     0.0123)  ( 0.00     0.0297)
                     ( 0.00     0.0484)

 CYCLE    2
   MIX coefficients:  0.8000  0.2000
 SCF Error: norm([F,P])=      1.306339869633, max([F,P])=      0.252322778202
 orbitals (Q,E):
 ---------------
 A :28...39          ( 2.00    -0.5362)  ( 2.00    -0.5226)  ( 2.00    -0.5060)  ( 2.00    -0.4621)
                     ( 2.00    -0.3738)  ( 2.00    -0.3409)  ( 2.00    -0.3282)  ( 2.00    -0.3188)
                     ( 2.00    -0.2905)  ( 2.00    -0.2884)  ( 1.00    -0.2432)  ( 0.00    -0.1234)

 CYCLE    3
  SDIIS (wt  0.000): -0.6846  1.6846
 A-DIIS (wt  1.000):  0.0000  1.0000
  DIIS coefficients:  0.0000  1.0000
 SCF Error: norm([F,P])=      0.584996018541, max([F,P])=      0.121886828059
 orbitals (Q,E):
 ---------------
 A :28...39          ( 2.00    -0.3819)  ( 2.00    -0.3748)  ( 2.00    -0.3512)  ( 2.00    -0.3073)
                     ( 2.00    -0.2690)  ( 2.00    -0.2153)  ( 2.00    -0.2136)  ( 2.00    -0.1932)
                     ( 2.00    -0.1479)  ( 2.00    -0.1466)  ( 1.00    -0.1365)  ( 0.00    -0.0322)

 CYCLE    4
  SDIIS (wt  0.000): -0.0851  0.8073  0.2779
 A-DIIS (wt  1.000): -0.0000  0.7904  0.2096
  DIIS coefficients: -0.0000  0.7904  0.2096
 SCF Error: norm([F,P])=      1.255133634458, max([F,P])=      0.264435616460
 orbitals (Q,E):
 ---------------
 A :28...39          ( 2.00    -0.4302)  ( 2.00    -0.4160)  ( 2.00    -0.3970)  ( 2.00    -0.3511)
                     ( 2.00    -0.2845)  ( 2.00    -0.2419)  ( 2.00    -0.2200)  ( 2.00    -0.2130)
                     ( 2.00    -0.2055)  ( 2.00    -0.2006)  ( 1.00    -0.1615)  ( 0.00    -0.0455)

 CYCLE    5
  SDIIS (wt  0.367):  0.0403  0.3800  0.1043  0.4754
 A-DIIS (wt  0.633):  0.0000  0.2529  0.0000  0.7471
  DIIS coefficients:  0.0148  0.2995  0.0383  0.6474
 SCF Error: norm([F,P])=      0.339096951365, max([F,P])=      0.063672445904
 orbitals (Q,E):
 ---------------
 A :28...39          ( 2.00    -0.4683)  ( 2.00    -0.4596)  ( 2.00    -0.4387)  ( 2.00    -0.3966)
                     ( 2.00    -0.3239)  ( 2.00    -0.2788)  ( 2.00    -0.2580)  ( 2.00    -0.2501)
                     ( 2.00    -0.2441)  ( 2.00    -0.2364)  ( 1.00    -0.2068)  ( 0.00    -0.0840)

 CYCLE    6
  SDIIS (wt  0.709): -0.0214  0.2051 -0.0040  0.4135  0.4068
 A-DIIS (wt  0.291):  0.0000  0.0000  0.0000  0.2194  0.7806
  DIIS coefficients: -0.0152  0.1455 -0.0029  0.3571  0.5155
 SCF Error: norm([F,P])=      0.168282875417, max([F,P])=      0.029792372939
 orbitals (Q,E):
 ---------------
 A :28...39          ( 2.00    -0.4531)  ( 2.00    -0.4444)  ( 2.00    -0.4243)  ( 2.00    -0.3794)
                     ( 2.00    -0.3120)  ( 2.00    -0.2710)  ( 2.00    -0.2469)  ( 2.00    -0.2412)
                     ( 2.00    -0.2318)  ( 2.00    -0.2283)  ( 1.00    -0.1885)  ( 0.00    -0.0686)

 CYCLE    7
  SDIIS (wt  0.810):  0.0119  0.0666  0.0056  0.2470  0.3646  0.3044
 A-DIIS (wt  0.190):  0.0000  0.0000  0.0000  0.0000  0.3200  0.6800
  DIIS coefficients:  0.0096  0.0540  0.0045  0.2001  0.3561  0.3756
 SCF Error: norm([F,P])=      0.094234896384, max([F,P])=      0.019778842316
 orbitals (Q,E):
 ---------------
 A :28...39          ( 2.00    -0.4580)  ( 2.00    -0.4470)  ( 2.00    -0.4274)  ( 2.00    -0.3835)
                     ( 2.00    -0.3123)  ( 2.00    -0.2686)  ( 2.00    -0.2467)  ( 2.00    -0.2379)
                     ( 2.00    -0.2356)  ( 2.00    -0.2276)  ( 1.00    -0.1916)  ( 0.00    -0.0709)

 CYCLE    8
  SDIIS (wt  0.957):  0.0044  0.0138 -0.0003  0.0776  0.1778  0.2581  0.4686
 A-DIIS (wt  0.043):  0.0000  0.0000  0.0000  0.0000  0.0000  0.0426  0.9574
  DIIS coefficients:  0.0042  0.0132 -0.0003  0.0742  0.1701  0.2488  0.4897
 SCF Error: norm([F,P])=      0.025444545400, max([F,P])=      0.005276991252
 orbitals (Q,E):
 ---------------
 A :28...39          ( 2.00    -0.4577)  ( 2.00    -0.4479)  ( 2.00    -0.4278)  ( 2.00    -0.3837)
                     ( 2.00    -0.3128)  ( 2.00    -0.2704)  ( 2.00    -0.2471)  ( 2.00    -0.2385)
                     ( 2.00    -0.2364)  ( 2.00    -0.2284)  ( 1.00    -0.1921)  ( 0.00    -0.0712)

 CYCLE    9
  SDIIS (wt  0.993): -0.0019  0.0103 -0.0014  0.0325  0.0896  0.1364  0.3210  0.4137
 A-DIIS (wt  0.007):  0.0000  0.0000  0.0000  0.0000  0.0000  0.0000  0.0251  0.9749
  DIIS coefficients: -0.0019  0.0102 -0.0014  0.0322  0.0890  0.1355  0.3191  0.4173
 SCF Error: norm([F,P])=      0.006053134939, max([F,P])=      0.001644476590
 orbitals (Q,E):
 ---------------
 A :28...39          ( 2.00    -0.4578)  ( 2.00    -0.4475)  ( 2.00    -0.4276)  ( 2.00    -0.3836)
                     ( 2.00    -0.3129)  ( 2.00    -0.2699)  ( 2.00    -0.2471)  ( 2.00    -0.2385)
                     ( 2.00    -0.2363)  ( 2.00    -0.2284)  ( 1.00    -0.1920)  ( 0.00    -0.0712)

 CYCLE   10
  SDIIS (wt  1.000): -0.0009  0.0034 -0.0005  0.0086  0.0281  0.0468  0.1151  0.2268  0.5726
  DIIS coefficients: -0.0009  0.0034 -0.0005  0.0086  0.0281  0.0468  0.1151  0.2268  0.5726
 SCF Error: norm([F,P])=      0.001367864180, max([F,P])=      0.000317568190
 orbitals (Q,E):
 ---------------
 A :28...39          ( 2.00    -0.4577)  ( 2.00    -0.4475)  ( 2.00    -0.4276)  ( 2.00    -0.3835)
                     ( 2.00    -0.3128)  ( 2.00    -0.2699)  ( 2.00    -0.2471)  ( 2.00    -0.2386)
                     ( 2.00    -0.2364)  ( 2.00    -0.2284)  ( 1.00    -0.1920)  ( 0.00    -0.0712)

 CYCLE   11
  SDIIS (wt  1.000): -0.0000  0.0006 -0.0001  0.0021  0.0085  0.0163  0.0405  0.1067  0.3997  0.4257
  DIIS coefficients: -0.0000  0.0006 -0.0001  0.0021  0.0085  0.0163  0.0405  0.1067  0.3997  0.4257
 SCF Error: norm([F,P])=      0.000753349966, max([F,P])=      0.000195322824
 orbitals (Q,E):
 ---------------
 A :28...39          ( 2.00    -0.4578)  ( 2.00    -0.4476)  ( 2.00    -0.4276)  ( 2.00    -0.3836)
                     ( 2.00    -0.3129)  ( 2.00    -0.2700)  ( 2.00    -0.2472)  ( 2.00    -0.2386)
                     ( 2.00    -0.2364)  ( 2.00    -0.2284)  ( 1.00    -0.1920)  ( 0.00    -0.0712)

 CYCLE   12
  SDIIS (wt  1.000):  0.0001 -0.0000  0.0001  0.0010  0.0024  0.0077  0.0321  0.1426  0.2143  0.5996
  DIIS coefficients:  0.0001 -0.0000  0.0001  0.0010  0.0024  0.0077  0.0321  0.1426  0.2143  0.5996
 SCF Error: norm([F,P])=      0.000143198196, max([F,P])=      0.000027386217
 orbitals (Q,E):
 ---------------
 A :28...39          ( 2.00    -0.4578)  ( 2.00    -0.4476)  ( 2.00    -0.4276)  ( 2.00    -0.3836)
                     ( 2.00    -0.3129)  ( 2.00    -0.2700)  ( 2.00    -0.2472)  ( 2.00    -0.2386)
                     ( 2.00    -0.2364)  ( 2.00    -0.2284)  ( 1.00    -0.1920)  ( 0.00    -0.0712)

 CYCLE   13
  SDIIS (wt  1.000): -0.0000 -0.0001  0.0000  0.0004  0.0020  0.0127  0.0662  0.1104  0.3605  0.4479
  DIIS coefficients: -0.0000 -0.0001  0.0000  0.0004  0.0020  0.0127  0.0662  0.1104  0.3605  0.4479
 SCF Error: norm([F,P])=      0.000048849896, max([F,P])=      0.000009104208
 orbitals (Q,E):
 ---------------
 A :28...39          ( 2.00    -0.4578)  ( 2.00    -0.4476)  ( 2.00    -0.4276)  ( 2.00    -0.3836)
                     ( 2.00    -0.3129)  ( 2.00    -0.2700)  ( 2.00    -0.2472)  ( 2.00    -0.2386)
                     ( 2.00    -0.2364)  ( 2.00    -0.2284)  ( 1.00    -0.1920)  ( 0.00    -0.0712)

 CYCLE   14
  SDIIS (wt  1.000): -0.0001 -0.0001 -0.0000 -0.0000  0.0020  0.0134  0.0264  0.1066  0.2587  0.5931
  DIIS coefficients: -0.0001 -0.0001 -0.0000 -0.0000  0.0020  0.0134  0.0264  0.1066  0.2587  0.5931
 SCF Error: norm([F,P])=      0.000015138679, max([F,P])=      0.000002477456
 orbitals (Q,E):
 ---------------
 A :28...39          ( 2.00    -0.4578)  ( 2.00    -0.4476)  ( 2.00    -0.4276)  ( 2.00    -0.3836)
                     ( 2.00    -0.3129)  ( 2.00    -0.2700)  ( 2.00    -0.2472)  ( 2.00    -0.2386)
                     ( 2.00    -0.2364)  ( 2.00    -0.2284)  ( 1.00    -0.1920)  ( 0.00    -0.0712)

 CYCLE   15
  SDIIS (wt  1.000):  0.0000  0.0001  0.0001  0.0003  0.0018  0.0041  0.0190  0.0731  0.2321  0.6695
  DIIS coefficients:  0.0000  0.0001  0.0001  0.0003  0.0018  0.0041  0.0190  0.0731  0.2321  0.6695
 SCF Error: norm([F,P])=      0.000003124841, max([F,P])=      0.000000598145
 orbitals (Q,E):
 ---------------
 A :28...39          ( 2.00    -0.4578)  ( 2.00    -0.4476)  ( 2.00    -0.4276)  ( 2.00    -0.3836)
                     ( 2.00    -0.3129)  ( 2.00    -0.2700)  ( 2.00    -0.2472)  ( 2.00    -0.2386)
                     ( 2.00    -0.2364)  ( 2.00    -0.2284)  ( 1.00    -0.1920)  ( 0.00    -0.0712)

 SCF CONVERGED

 CYCLE   16
 ***************************************************************************************************



                                                *******************
                                                *  R E S U L T S  *
                                                *******************
  
 *** Using FIT density in Focky
  SDIIS (wt  1.000):  0.0000 -0.0000  0.0000  0.0003  0.0009  0.0052  0.0215  0.0695  0.2411  0.6615
  DIIS coefficients:  0.0000 -0.0000  0.0000  0.0003  0.0009  0.0052  0.0215  0.0695  0.2411  0.6615
 SCF Error: norm([F,P])=      0.000000660447, max([F,P])=      0.000000161006

 Scaled ZORA Orbital Energies, per Irrep and Spin:
 =================================================
                        Occup              E (au)              E (eV)       Diff (eV) with prev. cycle
                        -----      --------------------        ------       --------------------------
 A
              28        2.000     -0.45775441304307E+00       -12.456               1.12E-06
              29        2.000     -0.44757341377592E+00       -12.179              -1.94E-07
              30        2.000     -0.42759229679099E+00       -11.635               6.66E-07
              31        2.000     -0.38358755485751E+00       -10.438               9.03E-07
              32        2.000     -0.31288047829571E+00        -8.514               7.92E-07
              33        2.000     -0.26995721648967E+00        -7.346              -1.29E-07
              34        2.000     -0.24715266693479E+00        -6.725               9.63E-07
              35        2.000     -0.23858539104757E+00        -6.492               8.67E-07
              36        2.000     -0.23635438745071E+00        -6.432               7.48E-07
              37        2.000     -0.22844404306613E+00        -6.216               1.04E-06
              38        1.000     -0.19199958953449E+00        -5.225               2.50E-08
              39        0.000     -0.71228636541848E-01        -1.938
              40        0.000     -0.31570661065674E-01        -0.859
              41        0.000     -0.12866529548434E-01        -0.350
              42        0.000      0.82078114602924E-02         0.223
              43        0.000      0.29453095293685E-01         0.801
              44        0.000      0.38345087971831E-01         1.043
              45        0.000      0.53321052192785E-01         1.451
              46        0.000      0.78345433719831E-01         2.132
              47        0.000      0.12151946671184E+00         3.307
              48        0.000      0.12829884230864E+00         3.491


 Partially Occupied:
              38 A                -0.19199958953449E+00
  
 HOMO :       37 A                -0.22844404306613E+00
 LUMO :       39 A                -0.71228636541848E-01
  


 All Electron Calculation, thus no Orbital Energies of the Core Orbitals are calculated

 Integrated fractional orbital density (NFOD):         1.000


 Fit test: (difference of exact and fit density, squared integrated, result summed over spins)
         Sum-of-Fragments:                             0.00000000372649
         Orthogonalized Fragments:                     0.00102775848528
         SCF:                                          0.00112837074954



 ==========================
 Electron Density at Nuclei
 ==========================
  
 The electron density is calculated at points on a small sphere around the center of a nucleus.
 The printed electron density is the average electron density on these points.
 The radius of the sphere is the printed approximate finite nuclear radius.
 Note: ZORA-4 density is used, which includes small component density

         Atom        Nuclear Radius (Angstrom)             Electron Density (a.u.)
         ----        -------------------------             -----------------------
     1)   C                 0.0000320678                              127.22324
     2)   C                 0.0000320678                              127.14630
     3)   Br                0.0000536685                            33512.95333
     4)   H                 0.0000181514                                0.51422
     5)   N                 0.0000333706                              206.10860
     6)   H                 0.0000181514                                0.50602
     7)   H                 0.0000181514                                0.49755
     8)   N                 0.0000333706                              205.98238
     9)   H                 0.0000181514                                0.50121
    10)   H                 0.0000181514                                0.49392
    11)   N                 0.0000333706                              206.04334
    12)   H                 0.0000181514                                0.50605
    13)   H                 0.0000181514                                0.48534



 =======================================
 M U L L I K E N   P O P U L A T I O N S
 =======================================
  
 The survey below gives for each atom:
 a) the total charge (Z minus electrons)
 b) the net spin polarization (nr of electrons spin-A minus spin-B)
 c) for each spin the atomic electron valence density (integrated) per L-value.

 Atom              Charge    Spin density          S         P         D         F
 ----              ------    ------------       ------    ------    ------    ------
 1 C               0.4634                       3.0504    2.3915    0.0893    0.0053
 2 C               0.2632                       3.1681    2.4499    0.1114    0.0074
 3 Br             -0.3411                       7.9947   17.2965   10.0391    0.0107
 4 H              -0.1338                       1.0527    0.0753    0.0058    0.0000
 5 N              -0.0382                       3.3973    3.5896    0.0483    0.0030
 6 H              -0.0247                       0.8929    0.1220    0.0098    0.0000
 7 H              -0.0401                       0.9118    0.1187    0.0096    0.0000
 8 N              -0.0215                       3.3587    3.6168    0.0428    0.0032
 9 H              -0.0396                       0.9029    0.1269    0.0098    0.0000
 10 H             -0.0473                       0.9087    0.1286    0.0100    0.0000
 11 N              0.0178                       3.3738    3.5618    0.0437    0.0030
 12 H             -0.0366                       0.9132    0.1140    0.0094    0.0000
 13 H             -0.0215                       0.8905    0.1211    0.0099    0.0000

 Populations of individual BAS functions
 ----------------------------------------
 1 C            0.5064  1.4829  0.1897  0.9093 -0.0379 -0.0184 -0.1446 -0.1780  0.6501  0.7815
                0.7833  0.1391  0.1900  0.1887  0.0012  0.0132  0.0173  0.0146  0.0217  0.0214
               -0.0025 -0.0003 -0.0019  0.0013  0.0008  0.0027  0.0005 -0.0004  0.0015  0.0036
 2 C            0.5048  1.4839  0.3574  0.8524 -0.0303  0.1427 -0.1787 -0.1006  0.6303  0.7083
                0.7363  0.1625  0.1661  0.1829 -0.0063  0.0201  0.0132  0.0253  0.0318  0.0272
               -0.0046 -0.0013 -0.0029  0.0034  0.0011  0.0029  0.0026  0.0015  0.0015  0.0031
 3 Br           0.7968  1.1334  2.0967  0.8032  0.8036  0.8035  1.1704  1.1698  1.1699  1.6446
                0.2367  1.1630  1.1724  1.1700  0.8719  0.8634  0.8659  0.2684  0.4024  0.4024
                0.2682  0.4025  0.2682  0.7646  1.1482  1.1480  0.7663  1.1489  0.7658  0.3020
[...]
                                    1.67%     1 P:y            -5.239  0.67     1 C
                                    1.49%     1 P:x            -7.062  1.00    13 N
                                    1.40%     3 S              40.869  0.00    10 H
                                    1.39%     1 P:x            11.051  0.00    10 H
                                    1.34%     3 S              40.869  0.00     4 H
                                   -1.21%     2 P:y             7.649  0.00    11 N
                                   -1.18%     3 S              14.073  0.00    12 N
                                    1.09%     2 S             -18.450  2.00    12 N
       1.451  0.00    45 A         26.45%     1 S              -6.532  1.00     9 H
                                   19.53%     1 S              -6.532  1.00     5 H
                                   18.29%     1 S              -6.532  1.00    10 H
                                   10.31%     1 S              -6.532  1.00     4 H
                                    9.70%     2 S               2.394  0.00    10 H
                                   -9.13%     2 P:x             7.649  0.00    13 N
                                    4.94%     2 S               2.394  0.00     5 H
                                    4.92%     2 S               2.394  0.00     9 H
                                   -4.71%     2 P:y             7.649  0.00    11 N
                                    4.26%     1 P:x            -7.062  1.00    13 N
                                    4.06%     1 S              -6.532  1.00     7 H
                                   -3.56%     2 P:y             7.649  0.00    13 N
                                   -3.43%     2 P:y             4.589  0.00     1 C
                                    3.22%     2 S               2.394  0.00     4 H
                                    2.70%     3 S              40.869  0.00     9 H
                                    1.83%     3 S              40.869  0.00     5 H
                                    1.75%     4 P:x             3.720  0.00     3 Br
                                    1.71%     1 S              -6.532  1.00     6 H
                                    1.33%     2 S             -13.620  2.00     1 C
                                    1.24%     1 P:x            -7.062  1.00    11 N
                                   -1.21%     3 S              10.158  0.00     1 C
                                    1.19%     1 P:z            -5.239  0.67     2 C
                                   -1.16%     5 S               6.099  0.00     3 Br
                                    1.14%     3 S              40.869  0.00    10 H
                                    1.09%     2 P:z             4.589  0.00     1 C
                                   -1.08%     2 P:x             7.649  0.00    11 N
       2.132  0.00    46 A         35.47%     1 S              -6.532  1.00     8 H
                                   12.55%     1 S              -6.532  1.00     5 H
                                   12.06%     1 S              -6.532  1.00     6 H
                                   -9.68%     2 P:x             7.649  0.00    12 N
                                    9.23%     1 S              -6.532  1.00     4 H
                                    8.20%     2 S               2.394  0.00     8 H
                                    7.18%     2 S               2.394  0.00     5 H
                                   -5.76%     2 P:x             7.649  0.00    11 N
                                    5.59%     2 S               2.394  0.00     4 H
                                   -5.19%     2 S               2.394  0.00     6 H
                                    4.92%     1 P:x            -7.062  1.00    12 N
                                    4.74%     1 S              -6.532  1.00     7 H
                                    4.25%     1 P:x            -7.062  1.00    11 N
                                    3.17%     1 P:y            -5.239  0.67     1 C
                                   -2.90%     2 P:y             4.589  0.00     1 C
                                    2.42%     4 P:z             3.720  0.00     3 Br
                                    2.34%     1 S              -6.532  1.00     9 H
                                    2.16%     3 S              40.869  0.00     8 H
                                    1.68%     1 S              -6.532  1.00    10 H
                                    1.67%     4 P:y             3.720  0.00     3 Br
                                    1.47%     3 S              40.869  0.00     7 H
                                    1.46%     3 S              40.869  0.00     6 H
                                   -1.41%     2 P:y             7.649  0.00    11 N
                                    1.22%     3 S              40.869  0.00     5 H
                                   -1.12%     2 S               2.394  0.00    10 H
                                   -1.10%     4 P:x             3.720  0.00     3 Br
       3.307  0.00    47 A         20.69%     1 P:y            -5.239  0.67     2 C
                                   15.49%     1 P:z            -5.239  0.67     1 C
                                  -13.76%     3 S              10.158  0.00     2 C
                                   11.94%     1 P:y            -7.062  1.00    11 N
                                    9.38%     1 P:y            -7.062  1.00    12 N
                                    8.64%     1 P:x            -5.239  0.67     1 C
                                    7.69%     2 P:z             4.589  0.00     1 C
                                    7.57%     2 S               2.394  0.00     4 H
                                   -5.07%     2 P:y             7.649  0.00    11 N
                                    4.20%     2 S             -13.620  2.00     2 C
                                    4.02%     1 P:y            -5.239  0.67     1 C
                                    3.99%     1 S              -6.532  1.00     9 H
                                   -3.94%     2 S               2.394  0.00     9 H
                                    3.87%     1 S              -6.532  1.00     5 H
                                    2.92%     2 P:x             4.589  0.00     2 C
                                    2.91%     2 P:z             4.589  0.00     2 C
                                   -2.70%     2 P:x             4.589  0.00     1 C
                                   -2.34%     2 P:y             7.649  0.00    13 N
                                    2.25%     1 P:x            -7.062  1.00    11 N
                                    2.07%     4 P:y             3.720  0.00     3 Br
                                    2.02%     2 P:y             7.649  0.00    12 N
                                    1.92%     1 P:z            -7.062  1.00    12 N
                                    1.87%     2 P:x             7.649  0.00    11 N
                                    1.56%     1 P:y            -7.062  1.00    13 N
                                    1.53%     2 S             -18.450  2.00    12 N
                                    1.49%     2 S             -18.450  2.00    11 N
                                   -1.47%     3 S              14.073  0.00    11 N
                                    1.34%     1 P:x            -7.062  1.00    12 N
                                   -1.29%     3 S              14.073  0.00    12 N
                                    1.25%     2 S             -13.620  2.00     1 C
                                    1.17%     1 P:z            11.051  0.00     8 H
                                    1.15%     2 S               2.394  0.00    10 H
                                    1.14%     2 D:x2-y2         7.341  0.00     3 Br
                                    1.09%     2 D:xz            7.341  0.00     3 Br
                                    1.01%     2 S               2.394  0.00     8 H
       3.491  0.00    48 A         38.03%     4 P:x             3.720  0.00     3 Br
                                   25.67%     4 P:z             3.720  0.00     3 Br
                                   10.19%     2 P:x             4.589  0.00     1 C
                                   -6.62%     5 S               6.099  0.00     3 Br
                                    5.80%     1 S              -6.532  1.00     4 H
                                    5.77%     1 S              -6.532  1.00    10 H
                                    4.88%     1 P:z            -5.239  0.67     2 C
                                    4.77%     1 P:y            -5.239  0.67     1 C
                                    4.44%     2 P:z             4.589  0.00     2 C
                                    4.26%     2 P:z             4.589  0.00     1 C
                                    4.17%     1 S              -6.532  1.00     5 H
                                    2.45%     1 P:x            -7.062  1.00    11 N
                                    2.33%     1 P:x            -5.239  0.67     2 C
                                   -2.29%     2 P:y             7.649  0.00    13 N
                                    2.04%     1 P:x            -7.062  1.00    13 N
                                   -2.03%     2 P:y             7.649  0.00    12 N
                                   -2.02%     2 P:y             4.589  0.00     1 C
                                   -1.90%     2 S               2.394  0.00     4 H
                                    1.83%     4 P:y             3.720  0.00     3 Br
                                   -1.61%     2 S               2.394  0.00     9 H
                                   -1.40%     3 S              14.073  0.00    13 N
                                   -1.34%     1 S              -6.532  1.00     8 H
                                   -1.25%     1 P:x            -5.239  0.67     1 C
                                    1.23%     1 P:z            -5.239  0.67     1 C
                                    1.22%     1 S              -6.532  1.00     9 H
                                   -1.19%     3 S              14.073  0.00    11 N
                                    1.09%     2 S             -13.620  2.00     1 C



 =======================================================================
 Electrostatic potential at the Nuclei due to electrons and other nuclei
 =======================================================================
  
         Atom                  Potential
         ----                  ---------
     1)   C                  14.70549869
     2)   C                  14.69322132
     3)   Br                180.55618613
     4)   H                   1.08090422
     5)   N                  18.40752137
     6)   H                   1.03529294
     7)   H                   1.02528329
     8)   N                  18.40636855
     9)   H                   1.02498872
    10)   H                   1.02580159
    11)   N                  18.39200435
    12)   H                   1.02755364
    13)   H                   1.01156342
 Mulliken charges used for AMS results%charges...


    =====================
     CALCULATION RESULTS
    =====================

Energy (hartree)            -2.39883626


--------------
Atomic charges
--------------
  Index   Atom    Charge
      1      C    0.4634
      2      C    0.2632
      3     Br   -0.3411
      4      H   -0.1338
      5      N   -0.0382
      6      H   -0.0247
      7      H   -0.0401
      8      N   -0.0215
      9      H   -0.0396
     10      H   -0.0473
     11      N    0.0178
     12      H   -0.0366
     13      H   -0.0215


Dipole moment vector    (Debye):    -2.57414094   -0.15884294    1.32142994
              magnitude (Debye):     2.89786296


-----------------------
Molecular orbitals info
-----------------------
n orbitals:              263
n spin:                    1

Note: only printing virtual orbitals with
      energy smaller than HOMO + 100. eV

Note: fractional orbital occupations. HOMO and LUMO labels are not well defined!

HOMO (eV):              -6.2163
LUMO (eV):              -5.2246
HOMO-LUMO gap (eV):      0.9917

   Index   Energy (eV)    Occupation
     172       93.0234         0.000       
     171       91.0109         0.000       
     170       89.1257         0.000       
     169       88.0199         0.000       
     168       85.5540         0.000       
     167       84.7231         0.000       
     166       84.5649         0.000       
     165       83.9749         0.000       
     164       83.4898         0.000       
     163       83.3061         0.000       
     162       82.8092         0.000       
     161       82.2408         0.000       
     160       81.1801         0.000       
     159       80.7187         0.000       
     158       79.9086         0.000       
     157       79.0949         0.000       
     156       78.2327         0.000       
     155       78.0584         0.000       
     154       77.0690         0.000       
     153       76.4847         0.000       
     152       75.7627         0.000       
     151       74.7676         0.000       
     150       73.7641         0.000       
     149       73.4961         0.000       
     148       72.5863         0.000       
     147       72.3653         0.000       
     146       70.2827         0.000       
     145       69.6807         0.000       
     144       68.1137         0.000       
     143       67.4025         0.000       
     142       66.4252         0.000       
     141       65.1633         0.000       
     140       64.0801         0.000       
     139       62.6066         0.000       
     138       62.1754         0.000       
     137       60.8823         0.000       
     136       58.8503         0.000       
     135       57.7692         0.000       
     134       56.9161         0.000       
     133       56.3579         0.000       
     132       54.9672         0.000       
     131       54.1449         0.000       
     130       53.3666         0.000       
     129       52.1038         0.000       
     128       51.5858         0.000       
     127       50.6535         0.000       
     126       48.4181         0.000       
     125       47.9968         0.000       
     124       46.9515         0.000       
     123       46.3003         0.000       
     122       44.1899         0.000       
     121       43.4560         0.000       
     120       42.7484         0.000       
     119       41.5724         0.000       
     118       40.5072         0.000       
     117       39.9377         0.000       
     116       38.6747         0.000       
     115       37.9569         0.000       
     114       37.7182         0.000       
     113       36.6548         0.000       
     112       35.9994         0.000       
     111       35.1408         0.000       
     110       34.8401         0.000       
     109       34.6894         0.000       
     108       34.2494         0.000       
     107       33.6234         0.000       
     106       32.8884         0.000       
     105       32.5892         0.000       
     104       32.1669         0.000       
     103       31.4980         0.000       
     102       30.9929         0.000       
     101       30.3426         0.000       
     100       29.6874         0.000       
      99       28.8534         0.000       
      98       28.6525         0.000       
      97       27.7914         0.000       
      96       27.4773         0.000       
      95       27.2037         0.000       
      94       26.3630         0.000       
      93       25.8352         0.000       
      92       25.4428         0.000       
      91       24.9683         0.000       
      90       24.9329         0.000       
      89       23.8945         0.000       
      88       23.8542         0.000       
      87       22.0580         0.000       
      86       20.8612         0.000       
      85       19.7353         0.000       
      84       19.0288         0.000       
      83       18.0671         0.000       
      82       17.2619         0.000       
      81       16.9384         0.000       
      80       16.2755         0.000       
      79       15.4176         0.000       
      78       15.0865         0.000       
      77       14.1040         0.000       
      76       14.0478         0.000       
      75       13.2234         0.000       
      74       12.5981         0.000       
      73       12.1569         0.000       
      72       11.5315         0.000       
      71       11.3688         0.000       
      70       10.4827         0.000       
      69       10.2984         0.000       
      68       10.0021         0.000       
      67        9.7088         0.000       
      66        9.5202         0.000       
      65        8.9644         0.000       
      64        8.5139         0.000       
      63        8.2271         0.000       
      62        8.0865         0.000       
      61        7.3526         0.000       
      60        6.8012         0.000       
      59        6.6107         0.000       
      58        6.2746         0.000       
      57        5.9696         0.000       
      56        5.7700         0.000       
      55        5.3746         0.000       
      54        5.2430         0.000       
      53        5.1510         0.000       
      52        4.9074         0.000       
      51        4.6851         0.000       
      50        4.6075         0.000       
      49        3.9580         0.000       
      48        3.4912         0.000       
      47        3.3067         0.000       
      46        2.1319         0.000       
      45        1.4509         0.000       
      44        1.0434         0.000       
      43        0.8015         0.000       
      42        0.2233         0.000       
      41       -0.3501         0.000       
      40       -0.8591         0.000       
      39       -1.9382         0.000       
      38       -5.2246         1.000 < LUMO
      37       -6.2163         2.000 < HOMO
      36       -6.4315         2.000       
      35       -6.4922         2.000       
      34       -6.7254         2.000       
      33       -7.3459         2.000       
      32       -8.5139         2.000       
      31      -10.4379         2.000       
      30      -11.6354         2.000       
      29      -12.1791         2.000       
      28      -12.4561         2.000       
      27      -12.8316         2.000       
      26      -13.2549         2.000       
      25      -14.7726         2.000       
      24      -17.4813         2.000       
      23      -18.9920         2.000       
      22      -21.8060         2.000       
      21      -22.7778         2.000       
      20      -23.9756         2.000       
      19      -65.0050         2.000       
      18      -65.0054         2.000       
      17      -65.2206         2.000       
      16      -65.2227         2.000       
      15      -65.2928         2.000       
      14     -171.5753         2.000       
      13     -171.5786         2.000       
      12     -171.8685         2.000       
      11     -235.4457         2.000       
      10     -272.3159         2.000       
       9     -272.5856         2.000       
       8     -381.8334         2.000       
       7     -381.8727         2.000       
       6     -382.2470         2.000       
       5    -1525.6873         2.000       
       4    -1525.6891         2.000       
       3    -1525.7875         2.000       
       2    -1728.8089         2.000       
       1   -13295.3109         2.000       

AMS application finished. Exiting.
NORMAL TERMINATION
     Total cpu time:      43.24
  Total system time:       0.37
 Total elapsed time:      43.77
NORMAL TERMINATION with warnings
