
 *******************************************************************************
 *                                                                             *
 *  --------------------------------                                           *
 *   Amsterdam Modeling Suite (AMS)              2026.103                      *
 *  --------------------------------                                           *
 *                                               r260501 2026-05-01 873454b5   *
 *                                                                             *
 *                                                                             *
 *                              =================                              *
 *                              |               |                              *
 *                              |     A M S     |                              *
 *                              |               |                              *
 *                              =================                              *
 *                                                                             *
 *                                                                             *
 *   Online information and documentation:  https://www.scm.com/support/       *
 *   E-mail:  support@scm.com   info@scm.com                                   *
 *                                                                             *
 *   Scientific publications using AMS results must be properly referenced     *
 *   See the User Manuals (or the web site) for recommended citations          *
 *   The terms and conditions of the End User License Agreement apply to       *
 *   the use of AMS, https://www.scm.com/license-terms/                        *
 *                                                                             *
 **********************  x86_64_linux_intel / intelmpi  ************************
 
 Licensed to: Jong-June Jeon / University of Seoul 2026-05-13 16:10:32
 SCM User ID: u30731
  
 AMS 2026.103  RunTime: May31-2026 14:06:37  ShM Nodes: 1  Procs: 1

 AMS jobname: c4_fragA_opt
 AMS jobid  : 636284624

 Start   directory: /gpfs/home1/yeseo1ee/projects/eda-asm-prediction/adf_outputs/batch_001/dipolar_001995/
 Results directory: /gpfs/home1/yeseo1ee/projects/eda-asm-prediction/adf_outputs/batch_001/dipolar_001995/c4_fragA_opt.results/
 Scratch directory: /tmp/amstmp_c4_fragA_opt_kid0.636284624/

 RNG seed: -304991777 142165665 829479276 1716841866 319670612 -1683660516 1177522475 1655805895



                      ************************************************************************
                      *  ADF 2026.103  RunTime: May31-2026 14:06:37  ShM Nodes: 1  Procs: 1  *
                      ************************************************************************
  

       ***************************
       *  GEOMETRY OPTIMIZATION  *
       ***************************

Optimization Method                    Quasi Newton
Optimization Coordinates               Delocalized Coordinates
Optimize lattice                       F
 
 ------------------------------------------------------
 Convergence criteria (Hartree,Angstrom)
 ------------------------------------------------------
 Maximum gradient               0.000100000000
 Maximum rms gradient           0.000066666667
 Maximum step allowed           0.010000000000
 Maximum rms step allowed       0.006666666667
 Maximum energy change allowe   0.000220000000
 Maximum stress energy allowe   0.000500000000
 
Initial model Hessian                  Automatic Hessian
 
------------------------------------
Quasi-Newton Optimizer Parameters
------------------------------------
Hessian Update Method                  BFGS
Maximum number of steps                  200
First GDIIS cycle                          0
Maximum GDIIS vectors                      0
Trust radius (bohr)                        0.200000
Trust radius varies                        T
Constraints converged at all steps         T
Use projector                              T
 
 Rigid motions settings for: old optimizer
 Atomic rotations (x,y,z):     T T T
 Atomic translations (x,y,z):  T T T
 Tolerance:                  1.000000000000000E-006

--------
Geometry
--------
Formula: C10H9NO2
Atoms
  Index Symbol   x (angstrom)   y (angstrom)   z (angstrom)
      1      C     0.65812000     0.85128000     2.36621000
      2      C    -0.34443000     0.92631000     1.26698000
      3      N     1.87221000     0.25000000     2.21905000
      4      C     2.70088000     0.68103000     3.21995000
      5      C     4.02621000     0.13694000     3.47728000
      6      C     4.95422000     0.84893000     4.26433000
      7      C     6.20737000     0.30421000     4.54479000
      8      C     6.56457000    -0.95113000     4.04219000
      9      C     5.65550000    -1.65777000     3.24625000
     10      C     4.39977000    -1.12255000     2.96564000
     11      C     2.12554000     1.91663000     3.69722000
     12      O     2.51064000     2.80656000     4.44069000
     13      O     0.88864000     2.01802000     3.05057000
     14      H    -1.26652000     1.39856000     1.62519000
     15      H    -0.56821000    -0.06818000     0.86304000
     16      H     0.05795000     1.55193000     0.45349000
     17      H     1.95027000    -0.66034000     1.77019000
     18      H     4.68136000     1.82889000     4.65365000
     19      H     6.91240000     0.86796000     5.16032000
     20      H     7.54554000    -1.37605000     4.26636000
     21      H     5.92394000    -2.63862000     2.84707000
     22      H     3.69799000    -1.70377000     2.36396000

Total System Charge              0.00000


----------------
ADF Engine Input
----------------
 
   Basis
     Type TZ2P
     Core None
   End
   XC
     GGA BLYP
     Dispersion GRIMME3 BJDAMP
   End
   Symmetry NOSYM
   NumericalQuality Normal
   Unrestricted No
   SCF
     Iterations 200
     Converge 1.0e-6
   End
   Save TAPE21
 

 Title: *** (NO TITLE) ***

 Using automatic Hessian for delocalized coordinates.
 *** GO1_GOStep1 ***

 Energy gradients wrt nuclear displacements
 ==========================================

     Atom      Cartesian (a.u./angstrom)
                 X         Y         Z
 ----------------------------------------
     1 C    -0.004119 -0.044431  0.072430
     2 C     0.005798  0.000135  0.005216
     3 N     0.053402  0.039883 -0.052414
     4 C    -0.067069 -0.029091  0.007614
     5 C     0.020850 -0.003875  0.001918
     6 C    -0.004401 -0.009122 -0.009278
     7 C    -0.001400 -0.003437 -0.002114
     8 C    -0.009251  0.003817 -0.001007
     9 C    -0.001123  0.008121  0.004649
    10 C    -0.001948  0.006764  0.001177
    11 C    -0.054554 -0.008117 -0.022084
    12 O    -0.003999  0.001584 -0.008936
    13 O     0.059621  0.033274 -0.003899
    14 H    -0.000834  0.005152  0.000259
    15 H     0.002330 -0.000880 -0.001258
    16 H     0.004107 -0.000220  0.002915
    17 H    -0.004061 -0.001261  0.001950
    18 H     0.001177  0.004142  0.001495
    19 H     0.003375  0.002472  0.002892
    20 H     0.004693 -0.001462  0.001386
    21 H     0.000760 -0.004047 -0.001724
    22 H    -0.003353  0.000601 -0.001185
 ----------------------------------------
 
----------------------------------------------------------------------
Geometry Convergence after Step   1       (Hartree/Angstrom,Angstrom)
----------------------------------------------------------------------
current energy                               -5.05986221 Hartree
energy change                      -5.05986221     0.00022000    F
constrained gradient max            0.07243893     0.00010000    F
constrained gradient rms            0.02106424     0.00006667    F
gradient max                        0.07243893
gradient rms                        0.02106424
cart. step max                      0.04857385     0.01000000    F
cart. step rms                      0.01948613     0.00666667    F
 

--------
Geometry
--------
Formula: C10H9NO2
Atoms
  Index Symbol   x (angstrom)   y (angstrom)   z (angstrom)
      1      C     0.63146745     0.86249479     2.34326770
      2      C    -0.35942851     0.94345369     1.22679215
      3      N     1.84217251     0.23905969     2.25714792
      4      C     2.70916802     0.68130586     3.23976240
      5      C     4.03184245     0.13308021     3.48600446
      6      C     4.96739825     0.85087364     4.26426375
      7      C     6.22453431     0.30867356     4.53494635
      8      C     6.58377747    -0.94914113     4.03523811
      9      C     5.66940523    -1.66373892     3.25126592
     10      C     4.40895650    -1.13273098     2.97953151
     11      C     2.13059659     1.91184545     3.72592046
     12      O     2.51588184     2.79437997     4.48138891
     13      O     0.86670448     2.00270829     3.06782697
     14      H    -1.28351331     1.41507003     1.57661615
     15      H    -0.58664870    -0.05071907     0.82485538
     16      H     0.04442135     1.56496471     0.41044673
     17      H     1.91992873    -0.67381077     1.81334505
     18      H     4.69417099     1.83015355     4.65030186
     19      H     6.93173597     0.87643151     5.14036316
     20      H     7.56611740    -1.36894882     4.25233396
     21      H     5.93710891    -2.64419253     2.85588516
     22      H     3.70816208    -1.72237274     2.38691593

Total System Charge              0.00000

 *** GO1_GOStep2 ***

 Energy gradients wrt nuclear displacements
 ==========================================

     Atom      Cartesian (a.u./angstrom)
                 X         Y         Z
 ----------------------------------------
     1 C    -0.038367 -0.044730  0.040235
     2 C     0.001169  0.002273 -0.000161
     3 N     0.041823  0.040091 -0.038211
     4 C    -0.024835 -0.027685  0.017471
     5 C     0.013607  0.001899  0.001022
     6 C    -0.002930 -0.004118 -0.005318
     7 C    -0.000054 -0.001289 -0.000208
     8 C    -0.004703  0.001325 -0.000464
     9 C    -0.000157  0.003146  0.002262
    10 C    -0.000319  0.002180 -0.000127
    11 C    -0.044863 -0.002070 -0.015012
    12 O     0.006508  0.007533  0.001378
    13 O     0.051095  0.018759 -0.005091
    14 H     0.000035  0.003685 -0.000997
    15 H     0.001375 -0.000116 -0.001222
    16 H     0.001689  0.000147  0.000455
    17 H    -0.005055 -0.002054  0.002889
    18 H     0.000937  0.002428  0.000362
    19 H     0.001683  0.001196  0.001339
    20 H     0.002386 -0.000800  0.000651
    21 H     0.000564 -0.002069 -0.000799
    22 H    -0.001589  0.000267 -0.000453
 ----------------------------------------

 dE(predicted):    -0.80971E-02, dE(actual):    -0.74173E-02, Trust radius:    0.400000, all in a.u.
 
----------------------------------------------------------------------
Geometry Convergence after Step   2       (Hartree/Angstrom,Angstrom)
----------------------------------------------------------------------
current energy                               -5.06727953 Hartree
energy change                      -0.00741732     0.00022000    F
constrained gradient max            0.05109641     0.00010000    F
constrained gradient rms            0.01619538     0.00006667    F
gradient max                        0.05109641
gradient rms                        0.01619538
cart. step max                      0.06503544     0.01000000    F
cart. step rms                      0.02012766     0.00666667    F
 

--------
Geometry
--------
Formula: C10H9NO2
Atoms
  Index Symbol   x (angstrom)   y (angstrom)   z (angstrom)
      1      C     0.64727822     0.89278314     2.31986115
      2      C    -0.33692863     0.95306344     1.19582941
      3      N     1.81900053     0.21156244     2.30592279
      4      C     2.71818842     0.70151727     3.24064195
      5      C     4.02933809     0.13930632     3.48601885
      6      C     4.97302642     0.85617574     4.25996560
      7      C     6.23131405     0.31185178     4.51956192
      8      C     6.58746170    -0.94745937     4.01908562
      9      C     5.66356145    -1.66481716     3.24772147
     10      C     4.40092655    -1.13327014     2.98589430
     11      C     2.13481087     1.91921535     3.74386667
     12      O     2.49045299     2.77892087     4.52942942
     13      O     0.82890678     1.99437654     3.10325832
     14      H    -1.26755764     1.41111347     1.54340755
     15      H    -0.55606940    -0.04970686     0.81152823
     16      H     0.05595775     1.56725042     0.36920214
     17      H     1.89610412    -0.70892595     1.87838049
     18      H     4.70152062     1.83393401     4.64664911
     19      H     6.94251806     0.87940647     5.11710482
     20      H     7.56978250    -1.36644998     4.22772775
     21      H     5.92571612    -2.64552397     2.85414898
     22      H     3.69865041    -1.72548382     2.39921345

Total System Charge              0.00000

 *** GO1_GOStep3 ***

 Energy gradients wrt nuclear displacements
 ==========================================

     Atom      Cartesian (a.u./angstrom)
                 X         Y         Z
 ----------------------------------------
     1 C    -0.027726 -0.031780  0.019546
     2 C     0.002422  0.006176 -0.006741
     3 N     0.032879  0.016890 -0.022105
     4 C    -0.006418 -0.020811  0.009130
     5 C     0.005729  0.002961 -0.002630
     6 C    -0.001955  0.000392 -0.001583
     7 C     0.000825 -0.000420  0.000540
     8 C    -0.000873  0.000530  0.000163
     9 C    -0.000295 -0.000070  0.000112
    10 C    -0.000029 -0.001342 -0.000338
    11 C    -0.032789  0.011121 -0.012546
    12 O     0.001511 -0.002352 -0.001175
    13 O     0.028445  0.021364  0.013907
    14 H     0.001101  0.001450 -0.000241
    15 H     0.000430  0.000240  0.000304
    16 H     0.000013  0.000048 -0.000888
    17 H    -0.004043 -0.005402  0.005033
    18 H     0.000534  0.000548 -0.000606
    19 H     0.000106  0.000115 -0.000094
    20 H     0.000321 -0.000105  0.000162
    21 H     0.000195 -0.000119 -0.000095
    22 H    -0.000384  0.000566  0.000143
 ----------------------------------------

 dE(predicted):    -0.74892E-02, dE(actual):    -0.74009E-02, Trust radius:    0.800000, all in a.u.
 
----------------------------------------------------------------------
Geometry Convergence after Step   3       (Hartree/Angstrom,Angstrom)
----------------------------------------------------------------------
current energy                               -5.07468038 Hartree
energy change                      -0.00740086     0.00022000    F
constrained gradient max            0.03288592     0.00010000    F
constrained gradient rms            0.01074726     0.00006667    F
gradient max                        0.03288592
gradient rms                        0.01074726
cart. step max                      0.20302673     0.01000000    F
cart. step rms                      0.07301883     0.00666667    F
 

--------
Geometry
--------
Formula: C10H9NO2
Atoms
  Index Symbol   x (angstrom)   y (angstrom)   z (angstrom)
      1      C     0.70772874     0.99646298     2.22254384
      2      C    -0.39115180     0.87971513     1.21574146
      3      N     1.82120189     0.26723997     2.31401061
      4      C     2.78556115     0.80429050     3.18147435
      5      C     4.04690871     0.17600267     3.47008405
      6      C     4.97439023     0.82994519     4.32559656
      7      C     6.21273869     0.24988035     4.59999920
      8      C     6.57485460    -0.98690455     4.04540836
      9      C     5.66536541    -1.65057795     3.20996409
     10      C     4.42050338    -1.08481792     2.92961693
     11      C     2.21988420     2.00142098     3.70634676
     12      O     2.55717693     2.86787113     4.48614716
     13      O     0.86347652     2.07323697     3.00577658
     14      H    -1.31076762     1.29963626     1.63029548
     15      H    -0.58095045    -0.17109843     0.96792011
     16      H    -0.14706898     1.42162094     0.28877228
     17      H     1.92814386    -0.63435788     1.85957501
     18      H     4.69400821     1.77999672     4.76387788
     19      H     6.90321018     0.76942306     5.25672093
     20      H     7.54067897    -1.42899014     4.26388258
     21      H     5.92482124    -2.61250752     2.77885558
     22      H     3.74324593    -1.63864846     2.28181022

Total System Charge              0.00000

 *** GO1_GOStep4 ***

 Energy gradients wrt nuclear displacements
 ==========================================

     Atom      Cartesian (a.u./angstrom)
                 X         Y         Z
 ----------------------------------------
     1 C    -0.023034 -0.022763 -0.008395
     2 C    -0.001765  0.006024 -0.010900
     3 N     0.000008  0.021941  0.006288
     4 C     0.027064 -0.007324  0.001214
     5 C    -0.012539  0.005747 -0.004606
     6 C     0.001284  0.008493  0.004407
     7 C     0.002568  0.001717  0.001811
     8 C     0.006569 -0.001845  0.001740
     9 C    -0.000015 -0.005888 -0.004015
    10 C     0.001032 -0.006790 -0.001003
    11 C    -0.024908  0.011138  0.001197
    12 O     0.008548 -0.001317  0.002495
    13 O     0.024005 -0.004009  0.008452
    14 H     0.001714 -0.002391 -0.000279
    15 H    -0.002029  0.000582  0.001431
    16 H    -0.000818 -0.000434 -0.002298
    17 H    -0.001942 -0.002364  0.003868
    18 H    -0.000831 -0.003523 -0.001166
    19 H    -0.002763 -0.001858 -0.002445
    20 H    -0.003558  0.001361 -0.000864
    21 H    -0.000487  0.003341  0.001606
    22 H     0.001897  0.000162  0.001463
 ----------------------------------------

 dE(predicted):    -0.57005E-02, dE(actual):    -0.62101E-02, Trust radius:    1.000000, all in a.u.
 
----------------------------------------------------------------------
Geometry Convergence after Step   4       (Hartree/Angstrom,Angstrom)
----------------------------------------------------------------------
current energy                               -5.08089044 Hartree
energy change                      -0.00621006     0.00022000    F
constrained gradient max            0.02707288     0.00010000    F
constrained gradient rms            0.00839804     0.00006667    F
gradient max                        0.02707288
gradient rms                        0.00839804
cart. step max                      0.15163761     0.01000000    F
cart. step rms                      0.05726281     0.00666667    F
 

--------
Geometry
--------
Formula: C10H9NO2
Atoms
  Index Symbol   x (angstrom)   y (angstrom)   z (angstrom)
      1      C     0.74989350     1.04687998     2.17364509
      2      C    -0.42156904     0.83100120     1.27880456
      3      N     1.84202496     0.29429587     2.27240168
      4      C     2.82230158     0.85326574     3.11793817
      5      C     4.06720423     0.20481641     3.43832735
      6      C     4.97086498     0.81756722     4.34831934
      7      C     6.18173311     0.20531446     4.66597274
      8      C     6.54253588    -1.02514870     4.09767818
      9      C     5.66262240    -1.64157625     3.19850305
     10      C     4.44665894    -1.03952805     2.87097715
     11      C     2.28174934     2.05853572     3.62510268
     12      O     2.59562264     2.93023994     4.40664474
     13      O     0.86620681     2.10078085     2.96914251
     14      H    -1.32950782     1.19692210     1.76645097
     15      H    -0.55431247    -0.23616031     1.06412323
     16      H    -0.29870659     1.36729930     0.32645974
     17      H     1.97084905    -0.57363379     1.76357315
     18      H     4.69767200     1.77013865     4.78839074
     19      H     6.85363207     0.69585635     5.36514775
     20      H     7.48961374    -1.49326011     4.34698467
     21      H     5.92293711    -2.59658706     2.75006014
     22      H     3.79393359    -1.55817952     2.16977236

Total System Charge              0.00000

 *** GO1_GOStep5 ***

 Energy gradients wrt nuclear displacements
 ==========================================

     Atom      Cartesian (a.u./angstrom)
                 X         Y         Z
 ----------------------------------------
     1 C    -0.002276 -0.003837 -0.012811
     2 C    -0.001177  0.004092 -0.004045
     3 N    -0.008086  0.006208  0.008127
     4 C     0.020339 -0.004606  0.001568
     5 C    -0.012600  0.002868 -0.002045
     6 C     0.002936  0.004542  0.004810
     7 C     0.000815  0.000983  0.001576
     8 C     0.004178 -0.001423  0.001803
     9 C    -0.000357 -0.003220 -0.002405
    10 C     0.001839 -0.002761 -0.002180
    11 C    -0.013378  0.009137 -0.015475
    12 O     0.002913 -0.000709  0.006950
    13 O     0.008864 -0.007685  0.013774
    14 H     0.000965 -0.002092 -0.000244
    15 H    -0.001668 -0.000072  0.001563
    16 H     0.000435 -0.000896 -0.000643
    17 H    -0.000389 -0.000728  0.001507
    18 H    -0.000370 -0.001849 -0.001643
    19 H    -0.001660 -0.001000 -0.001604
    20 H    -0.002144  0.001207 -0.000880
    21 H    -0.000490  0.002060  0.001358
    22 H     0.001311 -0.000218  0.000936
 ----------------------------------------

 dE(predicted):    -0.18107E-02, dE(actual):    -0.19118E-02, Trust radius:    1.000000, all in a.u.
 
----------------------------------------------------------------------
Geometry Convergence after Step   5       (Hartree/Angstrom,Angstrom)
----------------------------------------------------------------------
current energy                               -5.08280222 Hartree
energy change                      -0.00191178     0.00022000    F
constrained gradient max            0.02035426     0.00010000    F
constrained gradient rms            0.00555688     0.00006667    F
gradient max                        0.02035426
gradient rms                        0.00555688
cart. step max                      0.06596342     0.01000000    F
cart. step rms                      0.02075159     0.00666667    F
 

--------
Geometry
--------
Formula: C10H9NO2
Atoms
  Index Symbol   x (angstrom)   y (angstrom)   z (angstrom)
      1      C     0.77426147     1.07230205     2.14880617
      2      C    -0.41343340     0.81389663     1.29197209
      3      N     1.83305118     0.27888787     2.29309273
      4      C     2.81030238     0.85156683     3.13440849
      5      C     4.06452689     0.20894510     3.44767501
      6      C     4.96395031     0.80702504     4.36828360
      7      C     6.17456302     0.19223048     4.67908289
      8      C     6.53532041    -1.02916505     4.09273486
      9      C     5.65836313    -1.63028611     3.18205139
     10      C     4.44246588    -1.02406295     2.86258536
     11      C     2.28087063     2.05565726     3.63950499
     12      O     2.60691965     2.96861976     4.36240349
     13      O     0.88644171     2.14994504     2.90317910
     14      H    -1.31651941     1.18023215     1.79072160
     15      H    -0.52790156    -0.26000540     1.10085070
     16      H    -0.32374009     1.33100422     0.32597974
     17      H     1.97191006    -0.57714097     1.76715475
     18      H     4.69131263     1.75394102     4.82458500
     19      H     6.84529768     0.67209769     5.38955331
     20      H     7.48148024    -1.50392192     4.34056030
     21      H     5.92208721    -2.57663157     2.71354778
     22      H     3.79242998    -1.52629716     2.14568666

Total System Charge              0.00000

 *** GO1_GOStep6 ***

 Energy gradients wrt nuclear displacements
 ==========================================

     Atom      Cartesian (a.u./angstrom)
                 X         Y         Z
 ----------------------------------------
     1 C     0.008216  0.002550 -0.008047
     2 C     0.001119  0.002188  0.001176
     3 N    -0.007517 -0.009618  0.006019
     4 C     0.010662  0.003617 -0.006444
     5 C    -0.004619  0.001851 -0.003159
     6 C     0.002522  0.000278  0.002716
     7 C    -0.000714  0.000386  0.000151
     8 C     0.000971  0.000049  0.000334
     9 C    -0.000836 -0.000089  0.000009
    10 C     0.000206 -0.000444  0.000089
    11 C    -0.017149 -0.007082  0.003548
    12 O     0.002234  0.002511 -0.003601
    13 O     0.004316  0.005207  0.008081
    14 H     0.000358 -0.000532  0.000030
    15 H    -0.000757 -0.000657  0.000884
    16 H     0.000752 -0.001056  0.000133
    17 H     0.001263  0.000216 -0.001179
    18 H    -0.000329 -0.000187 -0.000695
    19 H    -0.000345  0.000017 -0.000077
    20 H    -0.000506  0.000275 -0.000008
    21 H    -0.000051  0.000514  0.000093
    22 H     0.000203  0.000008 -0.000054
 ----------------------------------------

 dE(predicted):    -0.84509E-03, dE(actual):    -0.42752E-03, Trust radius:    1.000000, all in a.u.
 
----------------------------------------------------------------------
Geometry Convergence after Step   6       (Hartree/Angstrom,Angstrom)
----------------------------------------------------------------------
current energy                               -5.08322974 Hartree
energy change                      -0.00042752     0.00022000    F
constrained gradient max            0.01710343     0.00010000    F
constrained gradient rms            0.00399096     0.00006667    F
gradient max                        0.01710343
gradient rms                        0.00399096
cart. step max                      0.05163560     0.01000000    F
cart. step rms                      0.01498383     0.00666667    F
 

--------
Geometry
--------
Formula: C10H9NO2
Atoms
  Index Symbol   x (angstrom)   y (angstrom)   z (angstrom)
      1      C     0.77155486     1.07713952     2.14358031
      2      C    -0.42021999     0.80563237     1.29374098
      3      N     1.84976499     0.30284948     2.26483250
      4      C     2.81151292     0.85555301     3.13719763
      5      C     4.06286959     0.20559968     3.45846171
      6      C     4.96667574     0.80644900     4.37095423
      7      C     6.17986984     0.19266843     4.67544034
      8      C     6.53548730    -1.03218156     4.09300307
      9      C     5.65231713    -1.63755141     3.19166035
     10      C     4.43427604    -1.03166907     2.87859658
     11      C     2.29427882     2.07098558     3.62670449
     12      O     2.60304652     2.96810385     4.37517428
     13      O     0.88659148     2.15366881     2.89717535
     14      H    -1.32775037     1.12859654     1.81443015
     15      H    -0.50083333    -0.26439263     1.06810650
     16      H    -0.36367902     1.35600266     0.34336748
     17      H     1.99105144    -0.54882049     1.73240517
     18      H     4.69721802     1.75409787     4.82859037
     19      H     6.85587417     0.67511577     5.37965939
     20      H     7.48247882    -1.50744183     4.33871131
     21      H     5.91220288    -2.58687136     2.72608089
     22      H     3.77937214    -1.53469422     2.16654691

Total System Charge              0.00000

 *** GO1_GOStep7 ***

 Energy gradients wrt nuclear displacements
 ==========================================

     Atom      Cartesian (a.u./angstrom)
                 X         Y         Z
 ----------------------------------------
     1 C    -0.001576  0.000359 -0.005115
     2 C    -0.000242  0.000452  0.001683
     3 N    -0.001943 -0.004321  0.001275
     4 C     0.007018 -0.000825  0.000874
     5 C    -0.002271  0.000221  0.000080
     6 C     0.001553 -0.000072  0.001125
     7 C    -0.000356  0.000647 -0.000764
     8 C     0.000061 -0.000044 -0.000177
     9 C    -0.000055  0.000257  0.000094
    10 C    -0.000208 -0.000417  0.000929
    11 C    -0.010637  0.001853 -0.004122
    12 O     0.000644  0.000175  0.000539
    13 O     0.007286  0.002525  0.006437
    14 H     0.000357  0.000102 -0.000430
    15 H    -0.000465 -0.000588  0.000095
    16 H     0.000326 -0.001053 -0.000248
    17 H     0.000925  0.000554 -0.002168
    18 H    -0.000524 -0.000067  0.000055
    19 H    -0.000039  0.000171  0.000188
    20 H    -0.000157 -0.000125  0.000296
    21 H     0.000153  0.000063 -0.000165
    22 H     0.000152  0.000132 -0.000482
 ----------------------------------------

 dE(predicted):    -0.50611E-03, dE(actual):    -0.57655E-03, Trust radius:    1.000000, all in a.u.
 
----------------------------------------------------------------------
Geometry Convergence after Step   7       (Hartree/Angstrom,Angstrom)
----------------------------------------------------------------------
current energy                               -5.08380629 Hartree
energy change                      -0.00057655     0.00022000    F
constrained gradient max            0.01059078     0.00010000    F
constrained gradient rms            0.00234103     0.00006667    F
gradient max                        0.01059078
gradient rms                        0.00234103
cart. step max                      0.05620826     0.01000000    F
cart. step rms                      0.01387236     0.00666667    F
 

--------
Geometry
--------
Formula: C10H9NO2
Atoms
  Index Symbol   x (angstrom)   y (angstrom)   z (angstrom)
      1      C     0.76946490     1.07681319     2.14720741
      2      C    -0.41801744     0.80325802     1.29082551
      3      N     1.85341087     0.31204033     2.25915590
      4      C     2.80893187     0.85707065     3.14069439
      5      C     4.06553738     0.20913390     3.45386032
      6      C     4.97147127     0.81185860     4.36147423
      7      C     6.18070100     0.19287199     4.67302114
      8      C     6.53277264    -1.03512100     4.09534822
      9      C     5.64776749    -1.64161432     3.19671410
     10      C     4.43279101    -1.03147130     2.87889269
     11      C     2.30088021     2.07411192     3.62896993
     12      O     2.60508314     2.97141066     4.37744499
     13      O     0.87821557     2.14891291     2.90130905
     14      H    -1.33308964     1.07238828     1.82944446
     15      H    -0.46220220    -0.25691970     1.01597829
     16      H    -0.38713485     1.39971462     0.36714493
     17      H     1.98978066    -0.54597100     1.73670586
     18      H     4.70794940     1.76402219     4.81358262
     19      H     6.85909734     0.67686528     5.37402363
     20      H     7.47982712    -1.51068807     4.34113487
     21      H     5.90122697    -2.59765498     2.74116343
     22      H     3.76949531    -1.54219218     2.18032404

Total System Charge              0.00000

 *** GO1_GOStep8 ***

 Energy gradients wrt nuclear displacements
 ==========================================

     Atom      Cartesian (a.u./angstrom)
                 X         Y         Z
 ----------------------------------------
     1 C    -0.000236 -0.000663 -0.001890
     2 C    -0.000302 -0.000125  0.001735
     3 N    -0.001710  0.000648  0.000273
     4 C     0.001759 -0.001597  0.002194
     5 C    -0.000187 -0.000119  0.000207
     6 C     0.000293 -0.000043 -0.000239
     7 C    -0.000741 -0.000378  0.000383
     8 C    -0.000295  0.000015 -0.000194
     9 C     0.000197  0.000246  0.000183
    10 C     0.000562  0.000649 -0.000515
    11 C    -0.007443  0.003028 -0.005241
    12 O     0.000454 -0.000212  0.001052
    13 O     0.007219 -0.001734  0.004077
    14 H     0.000455  0.000563 -0.000379
    15 H    -0.000109 -0.000302  0.000088
    16 H    -0.000195 -0.000788 -0.000704
    17 H     0.000283  0.000733 -0.001414
    18 H    -0.000245  0.000284 -0.000004
    19 H     0.000172  0.000248  0.000129
    20 H     0.000300  0.000069 -0.000032
    21 H    -0.000004 -0.000325  0.000165
    22 H    -0.000227 -0.000196  0.000126
 ----------------------------------------

 dE(predicted):    -0.17396E-03, dE(actual):    -0.26205E-03, Trust radius:    1.000000, all in a.u.
 
----------------------------------------------------------------------
Geometry Convergence after Step   8       (Hartree/Angstrom,Angstrom)
----------------------------------------------------------------------
current energy                               -5.08406834 Hartree
energy change                      -0.00026205     0.00022000    F
constrained gradient max            0.00741359     0.00010000    F
constrained gradient rms            0.00171259     0.00006667    F
gradient max                        0.00741359
gradient rms                        0.00171259
cart. step max                      0.15094515     0.01000000    F
cart. step rms                      0.03927835     0.00666667    F
 

--------
Geometry
--------
Formula: C10H9NO2
Atoms
  Index Symbol   x (angstrom)   y (angstrom)   z (angstrom)
      1      C     0.76848289     1.08307664     2.14952678
      2      C    -0.39807374     0.80356320     1.26431518
      3      N     1.85138234     0.32146087     2.26954077
      4      C     2.79084932     0.85237995     3.17300811
      5      C     4.05292177     0.20174632     3.47821362
      6      C     4.97861603     0.81695008     4.35441500
      7      C     6.19745599     0.20449821     4.64421545
      8      C     6.53390019    -1.03421116     4.08095163
      9      C     5.62779017    -1.65414338     3.21346151
     10      C     4.40533330    -1.04802910     2.91517235
     11      C     2.30770181     2.07515646     3.65224967
     12      O     2.59834081     2.97861147     4.39376090
     13      O     0.85905618     2.15347918     2.89223983
     14      H    -1.33133219     0.92758739     1.82677107
     15      H    -0.34691781    -0.21501415     0.86503315
     16      H    -0.42780599     1.50898510     0.42074128
     17      H     1.97425813    -0.55798571     1.78267737
     18      H     4.73270814     1.77940399     4.79509796
     19      H     6.89313815     0.69955843     5.32028347
     20      H     7.48754814    -1.50528470     4.31077224
     21      H     5.87207482    -2.61527979     2.76325252
     22      H     3.72653154    -1.56766929     2.23872013

Total System Charge              0.00000

 *** GO1_GOStep9 ***

 Energy gradients wrt nuclear displacements
 ==========================================

     Atom      Cartesian (a.u./angstrom)
                 X         Y         Z
 ----------------------------------------
     1 C     0.003233 -0.000931  0.005247
     2 C     0.000494 -0.001685  0.000568
     3 N    -0.000176  0.006810 -0.001543
     4 C    -0.007423 -0.000329  0.001488
     5 C     0.003052 -0.001774  0.001434
     6 C    -0.002543 -0.000938 -0.001130
     7 C     0.000795  0.000053 -0.000966
     8 C    -0.001145 -0.000059  0.000359
     9 C     0.000473  0.000307  0.000659
    10 C     0.000023  0.000820 -0.000190
    11 C    -0.002180  0.001400 -0.005859
    12 O    -0.000338 -0.000361  0.000974
    13 O     0.005073 -0.006781 -0.000474
    14 H     0.000166  0.001435  0.000054
    15 H     0.000671  0.000397 -0.000124
    16 H    -0.001080  0.000163 -0.001517
    17 H    -0.000519  0.000810  0.000531
    18 H     0.000387  0.000707  0.000122
    19 H     0.000373  0.000138  0.000381
    20 H     0.000656  0.000039  0.000103
    21 H     0.000268 -0.000279 -0.000237
    22 H    -0.000260  0.000059  0.000123
 ----------------------------------------

 dE(predicted):    -0.34118E-03, dE(actual):    -0.36004E-03, Trust radius:    1.000000, all in a.u.
 
----------------------------------------------------------------------
Geometry Convergence after Step   9       (Hartree/Angstrom,Angstrom)
----------------------------------------------------------------------
current energy                               -5.08442839 Hartree
energy change                      -0.00036004     0.00022000    F
constrained gradient max            0.00741370     0.00010000    F
constrained gradient rms            0.00212933     0.00006667    F
gradient max                        0.00741370
gradient rms                        0.00212933
cart. step max                      0.10528471     0.01000000    F
cart. step rms                      0.02270815     0.00666667    F
 

--------
Geometry
--------
Formula: C10H9NO2
Atoms
  Index Symbol   x (angstrom)   y (angstrom)   z (angstrom)
      1      C     0.77230638     1.09717701     2.13742680
      2      C    -0.40236053     0.78804147     1.27214865
      3      N     1.85404560     0.33274678     2.26499975
      4      C     2.80001304     0.86959826     3.16185105
      5      C     4.06158183     0.21533865     3.46481384
      6      C     4.98516440     0.82071650     4.35024596
      7      C     6.19245121     0.19364995     4.65623679
      8      C     6.52653554    -1.04371910     4.08828872
      9      C     5.62325694    -1.65362616     3.21082062
     10      C     4.40773535    -1.03750106     2.90430449
     11      C     2.32935847     2.09136273     3.64348185
     12      O     2.61372951     3.00043825     4.37675951
     13      O     0.85798119     2.17536041     2.86271279
     14      H    -1.32571877     0.82230268     1.86390353
     15      H    -0.30043538    -0.20279923     0.81725812
     16      H    -0.49857915     1.53518845     0.47167327
     17      H     1.97082229    -0.55743224     1.79671253
     18      H     4.74075398     1.77994403     4.79825256
     19      H     6.88379250     0.67952089     5.34290953
     20      H     7.47152031    -1.52578031     4.32963741
     21      H     5.86049440    -2.61856415     2.76552016
     22      H     3.72951089    -1.55312382     2.22446207

Total System Charge              0.00000

 *** GO1_GOStep10 ***

 Energy gradients wrt nuclear displacements
 ==========================================

     Atom      Cartesian (a.u./angstrom)
                 X         Y         Z
 ----------------------------------------
     1 C     0.002595  0.000374  0.003447
     2 C     0.000503 -0.001880  0.001143
     3 N    -0.000611  0.004538 -0.001976
     4 C    -0.006411  0.001324  0.002581
     5 C     0.003383 -0.000733 -0.000095
     6 C    -0.001617  0.000283 -0.002300
     7 C    -0.000180 -0.000737  0.001259
     8 C    -0.000147  0.000354 -0.000577
     9 C     0.000637  0.000185 -0.000074
    10 C    -0.000211  0.000263  0.000091
    11 C    -0.000480 -0.000699 -0.003919
    12 O    -0.000728 -0.000559  0.000300
    13 O     0.003138 -0.004840 -0.000951
    14 H    -0.000120  0.001067 -0.000125
    15 H     0.000619  0.000476 -0.000064
    16 H    -0.000662  0.000274 -0.000892
    17 H    -0.000202  0.000441  0.000774
    18 H     0.000219  0.000193  0.000456
    19 H     0.000181  0.000102  0.000070
    20 H     0.000294 -0.000007  0.000217
    21 H    -0.000038 -0.000305  0.000286
    22 H    -0.000162 -0.000111  0.000348
 ----------------------------------------

 dE(predicted):    -0.15700E-03, dE(actual):    -0.21217E-03, Trust radius:    1.000000, all in a.u.
 
----------------------------------------------------------------------
Geometry Convergence after Step  10       (Hartree/Angstrom,Angstrom)
----------------------------------------------------------------------
current energy                               -5.08464055 Hartree
energy change                      -0.00021217     0.00022000    T
constrained gradient max            0.00640169     0.00010000    F
constrained gradient rms            0.00163868     0.00006667    F
gradient max                        0.00640169
gradient rms                        0.00163868
cart. step max                      0.10170457     0.01000000    F
cart. step rms                      0.02360949     0.00666667    F
 

--------
Geometry
--------
Formula: C10H9NO2
Atoms
  Index Symbol   x (angstrom)   y (angstrom)   z (angstrom)
      1      C     0.77611906     1.11136001     2.12319512
      2      C    -0.40772530     0.77275363     1.28024829
      3      N     1.85239345     0.33808844     2.26725342
      4      C     2.81014726     0.88544616     3.15057089
      5      C     4.06278886     0.22095843     3.46458335
      6      C     4.98190301     0.81380831     4.36437815
      7      C     6.18628778     0.18215969     4.67027192
      8      C     6.51608590    -1.05597068     4.10127765
      9      C     5.61773761    -1.65371992     3.21043205
     10      C     4.41083784    -1.02648754     2.89292077
     11      C     2.35670492     2.11204595     3.62809628
     12      O     2.64229104     3.03283840     4.34254150
     13      O     0.86054808     2.20279231     2.82423346
     14      H    -1.31232681     0.72059811     1.89983595
     15      H    -0.26554559    -0.18792816     0.77421675
     16      H    -0.57006721     1.55233157     0.52439593
     17      H     1.96088741    -0.56401055     1.81988062
     18      H     4.74129845     1.77355827     4.81259947
     19      H     6.87544922     0.66179084     5.36299462
     20      H     7.45856569    -1.54204321     4.34252079
     21      H     5.85714050    -2.61254654     2.75397298
     22      H     3.74243883    -1.52898353     2.19400007

Total System Charge              0.00000

 *** GO1_GOStep11 ***

 Energy gradients wrt nuclear displacements
 ==========================================

     Atom      Cartesian (a.u./angstrom)
                 X         Y         Z
 ----------------------------------------
     1 C     0.001157  0.001185 -0.000433
     2 C     0.000035 -0.001463  0.001768
     3 N    -0.001114  0.000022 -0.002225
     4 C    -0.001434  0.002144  0.001784
     5 C     0.000924 -0.000378  0.000163
     6 C    -0.001210 -0.000081  0.000156
     7 C     0.000636  0.000529 -0.000163
     8 C    -0.000103 -0.000361  0.000802
     9 C    -0.000264 -0.000542  0.000352
    10 C     0.000440  0.000470 -0.001022
    11 C     0.000172 -0.001601 -0.000838
    12 O    -0.000361 -0.000007 -0.000250
    13 O     0.000659 -0.000991  0.000068
    14 H    -0.000156  0.000147 -0.000312
    15 H     0.000182  0.000273  0.000088
    16 H    -0.000109  0.000308 -0.000266
    17 H     0.000166 -0.000167  0.000602
    18 H     0.000341  0.000096 -0.000225
    19 H    -0.000172 -0.000003 -0.000144
    20 H     0.000043  0.000361 -0.000233
    21 H     0.000067  0.000257  0.000008
    22 H     0.000101 -0.000198  0.000321
 ----------------------------------------

 dE(predicted):    -0.12480E-03, dE(actual):    -0.10506E-03, Trust radius:    1.000000, all in a.u.
 
----------------------------------------------------------------------
Geometry Convergence after Step  11       (Hartree/Angstrom,Angstrom)
----------------------------------------------------------------------
current energy                               -5.08474561 Hartree
energy change                      -0.00010506     0.00022000    T
constrained gradient max            0.00222491     0.00010000    F
constrained gradient rms            0.00074301     0.00006667    F
gradient max                        0.00222491
gradient rms                        0.00074301
cart. step max                      0.01361758     0.01000000    F
cart. step rms                      0.00468307     0.00666667    T
 

--------
Geometry
--------
Formula: C10H9NO2
Atoms
  Index Symbol   x (angstrom)   y (angstrom)   z (angstrom)
      1      C     0.77291119     1.10765587     2.12923095
      2      C    -0.40473428     0.77329419     1.27533511
      3      N     1.84778798     0.33264686     2.27849599
      4      C     2.80863758     0.88424325     3.15513620
      5      C     4.06028660     0.21989812     3.46993636
      6      C     4.98261388     0.81349916     4.36653740
      7      C     6.18734247     0.18156304     4.66971179
      8      C     6.51946046    -1.05245340     4.09327225
      9      C     5.61821717    -1.65078821     3.20584128
     10      C     4.40641791    -1.02812756     2.89858525
     11      C     2.35668499     2.11472693     3.62795116
     12      O     2.64564047     3.03912770     4.33644781
     13      O     0.85898446     2.20405951     2.82378237
     14      H    -1.31373234     0.72053031     1.88845365
     15      H    -0.26147948    -0.18732413     0.76898899
     16      H    -0.55888177     1.55464542     0.52020780
     17      H     1.95491545    -0.57093453     1.83349820
     18      H     4.74005686     1.77067982     4.81917848
     19      H     6.87726172     0.66014423     5.36251211
     20      H     7.46174708    -1.53949085     4.33337147
     21      H     5.85641559    -2.60971511     2.74891146
     22      H     3.73740602    -1.52904062     2.19903391

Total System Charge              0.00000

 *** GO1_GOStep12 ***

 Energy gradients wrt nuclear displacements
 ==========================================

     Atom      Cartesian (a.u./angstrom)
                 X         Y         Z
 ----------------------------------------
     1 C     0.000087  0.000058  0.000098
     2 C     0.000116 -0.000379  0.000284
     3 N    -0.000098 -0.000619 -0.001544
     4 C     0.000221  0.000351  0.000246
     5 C    -0.000017 -0.000273  0.000116
     6 C     0.000079  0.000476 -0.000409
     7 C    -0.000088 -0.000168  0.000679
     8 C     0.000407  0.000313 -0.000234
     9 C     0.000148  0.000144 -0.000385
    10 C    -0.000381 -0.000235  0.000351
    11 C    -0.000668 -0.000542 -0.000152
    12 O     0.000015  0.000495 -0.000032
    13 O     0.000220  0.000637  0.000413
    14 H     0.000107 -0.000127 -0.000010
    15 H    -0.000030  0.000002  0.000019
    16 H    -0.000048  0.000006 -0.000085
    17 H     0.000074 -0.000380  0.000486
    18 H     0.000046 -0.000086 -0.000021
    19 H    -0.000115  0.000066 -0.000131
    20 H    -0.000157  0.000108  0.000117
    21 H    -0.000075  0.000095  0.000242
    22 H     0.000157  0.000054 -0.000049
 ----------------------------------------

 dE(predicted):    -0.21942E-04, dE(actual):    -0.10354E-04, Trust radius:    1.000000, all in a.u.
 
----------------------------------------------------------------------
Geometry Convergence after Step  12       (Hartree/Angstrom,Angstrom)
----------------------------------------------------------------------
current energy                               -5.08475596 Hartree
energy change                      -0.00001035     0.00022000    T
constrained gradient max            0.00154299     0.00010000    F
constrained gradient rms            0.00033027     0.00006667    F
gradient max                        0.00154299
gradient rms                        0.00033027
cart. step max                      0.01079599     0.01000000    F
cart. step rms                      0.00369346     0.00666667    T
 

--------
Geometry
--------
Formula: C10H9NO2
Atoms
  Index Symbol   x (angstrom)   y (angstrom)   z (angstrom)
      1      C     0.77127075     1.10580205     2.13230964
      2      C    -0.40261285     0.77485630     1.27176762
      3      N     1.84592509     0.33106878     2.28294704
      4      C     2.80683267     0.88247109     3.15903873
      5      C     4.05971392     0.21984936     3.47129581
      6      C     4.98380713     0.81443774     4.36558461
      7      C     6.19061414     0.18448784     4.66432849
      8      C     6.52028931    -1.05177937     4.09126998
      9      C     5.61641496    -1.65223492     3.20807842
     10      C     4.40498584    -1.02886475     2.90086095
     11      C     2.35294705     2.11216997     3.63303947
     12      O     2.64094946     3.03494752     4.34382409
     13      O     0.85633884     2.20107452     2.82883772
     14      H    -1.31561394     0.72800275     1.87941647
     15      H    -0.26087519    -0.18818850     0.76933783
     16      H    -0.54808578     1.55440755     0.51327575
     17      H     1.95631024    -0.56855842     1.83081700
     18      H     4.74148869     1.77194592     4.81782627
     19      H     6.88272451     0.66472620     5.35394743
     20      H     7.46360254    -1.53802553     4.32926827
     21      H     5.85355499    -2.61201491     2.75220019
     22      H     3.73337762    -1.53174121     2.20514822

Total System Charge              0.00000

 *** GO1_GOStep13 ***

 Energy gradients wrt nuclear displacements
 ==========================================

     Atom      Cartesian (a.u./angstrom)
                 X         Y         Z
 ----------------------------------------
     1 C    -0.000102 -0.000134  0.000210
     2 C     0.000122  0.000065 -0.000145
     3 N    -0.000133 -0.000023 -0.000649
     4 C     0.000616 -0.000195  0.000125
     5 C    -0.000175  0.000108 -0.000275
     6 C     0.000098  0.000097  0.000165
     7 C     0.000089  0.000118 -0.000094
     8 C     0.000116  0.000110  0.000015
     9 C    -0.000021 -0.000010  0.000101
    10 C    -0.000058  0.000057  0.000066
    11 C    -0.000847  0.000084  0.000013
    12 O    -0.000026 -0.000001 -0.000218
    13 O     0.000416  0.000214  0.000150
    14 H     0.000093 -0.000183  0.000079
    15 H    -0.000047 -0.000141 -0.000012
    16 H    -0.000020 -0.000172  0.000017
    17 H    -0.000026 -0.000241  0.000300
    18 H    -0.000064 -0.000034 -0.000004
    19 H    -0.000045  0.000100 -0.000037
    20 H    -0.000050  0.000085  0.000071
    21 H     0.000030  0.000081  0.000103
    22 H     0.000035  0.000013  0.000016
 ----------------------------------------

 dE(predicted):    -0.60523E-05, dE(actual):    -0.34273E-05, Trust radius:    1.000000, all in a.u.
 
----------------------------------------------------------------------
Geometry Convergence after Step  13       (Hartree/Angstrom,Angstrom)
----------------------------------------------------------------------
current energy                               -5.08475939 Hartree
energy change                      -0.00000343     0.00022000    T
constrained gradient max            0.00082065     0.00010000    F
constrained gradient rms            0.00019084     0.00006667    F
gradient max                        0.00082065
gradient rms                        0.00019084
cart. step max                      0.00618574     0.01000000    T
cart. step rms                      0.00248172     0.00666667    T
 

--------
Geometry
--------
Formula: C10H9NO2
Atoms
  Index Symbol   x (angstrom)   y (angstrom)   z (angstrom)
      1      C     0.77062696     1.10570748     2.13319174
      2      C    -0.40145586     0.77595086     1.26955398
      3      N     1.84417374     0.33003575     2.28596002
      4      C     2.80492161     0.88059918     3.16253382
      5      C     4.05808908     0.21819776     3.47408740
      6      C     4.98410959     0.81475675     4.36505028
      7      C     6.19168828     0.18566748     4.66226992
      8      C     6.52096671    -1.05111595     4.09000782
      9      C     5.61585184    -1.65297887     3.20913194
     10      C     4.40308070    -1.03099555     2.90437378
     11      C     2.35204189     2.11043811     3.63639572
     12      O     2.63947162     3.03247128     4.34814767
     13      O     0.85437111     2.19951238     2.83145008
     14      H    -1.31663436     0.73138273     1.87417029
     15      H    -0.25965060    -0.18793135     0.76864878
     16      H    -0.54310017     1.55479549     0.50970152
     17      H     1.95803145    -0.56513640     1.82601342
     18      H     4.74305792     1.77383065     4.81483953
     19      H     6.88551826     0.66765849     5.34906562
     20      H     7.46586736    -1.53571653     4.32537220
     21      H     5.85302906    -2.61277607     2.75312049
     22      H     3.72990381    -1.53551366     2.21133397

Total System Charge              0.00000

 *** GO1_GOStep14 ***

 Energy gradients wrt nuclear displacements
 ==========================================

     Atom      Cartesian (a.u./angstrom)
                 X         Y         Z
 ----------------------------------------
     1 C     0.000142  0.000034 -0.000050
     2 C     0.000047  0.000160 -0.000088
     3 N    -0.000319  0.000241  0.000045
     4 C     0.000534 -0.000171  0.000166
     5 C    -0.000403  0.000138 -0.000082
     6 C     0.000182  0.000005  0.000165
     7 C    -0.000096  0.000056 -0.000114
     8 C    -0.000078  0.000006  0.000095
     9 C     0.000054  0.000081  0.000091
    10 C     0.000111  0.000065  0.000069
    11 C    -0.000636  0.000243 -0.000182
    12 O    -0.000033 -0.000211 -0.000218
    13 O     0.000458 -0.000392 -0.000010
    14 H    -0.000045 -0.000179  0.000049
    15 H     0.000012 -0.000180 -0.000013
    16 H     0.000001 -0.000236  0.000077
    17 H    -0.000090 -0.000034  0.000063
    18 H    -0.000062  0.000118 -0.000097
    19 H     0.000044  0.000159 -0.000006
    20 H     0.000077  0.000097  0.000002
    21 H     0.000078  0.000011  0.000036
    22 H     0.000022 -0.000008  0.000003
 ----------------------------------------

 dE(predicted):    -0.29263E-05, dE(actual):    -0.12359E-05, Trust radius:    1.000000, all in a.u.
 
----------------------------------------------------------------------
Geometry Convergence after Step  14       (Hartree/Angstrom,Angstrom)
----------------------------------------------------------------------
current energy                               -5.08476063 Hartree
energy change                      -0.00000124     0.00022000    T
constrained gradient max            0.00060909     0.00010000    F
constrained gradient rms            0.00017074     0.00006667    F
gradient max                        0.00060909
gradient rms                        0.00017074
cart. step max                      0.00451056     0.01000000    T
cart. step rms                      0.00164037     0.00666667    T
 

--------
Geometry
--------
Formula: C10H9NO2
Atoms
  Index Symbol   x (angstrom)   y (angstrom)   z (angstrom)
      1      C     0.77007709     1.10564926     2.13382086
      2      C    -0.40110250     0.77573017     1.26875380
      3      N     1.84415190     0.33033435     2.28625737
      4      C     2.80461267     0.88077968     3.16315807
      5      C     4.05829247     0.21855537     3.47386555
      6      C     4.98509453     0.81571816     4.36351403
      7      C     6.19275973     0.18664841     4.66042892
      8      C     6.52113254    -1.05092412     4.08931618
      9      C     5.61490707    -1.65371913     3.21019831
     10      C     4.40216065    -1.03160779     2.90558203
     11      C     2.35252349     2.11014239     3.63823979
     12      O     2.63898248     3.03190054     4.35066446
     13      O     0.85207268     2.19862969     2.83319951
     14      H    -1.31648517     0.72687217     1.87274986
     15      H    -0.25664427    -0.18597762     0.76450215
     16      H    -0.54442588     1.55699102     0.51166286
     17      H     1.96051315    -0.56239404     1.82221226
     18      H     4.74446440     1.77498718     4.81315416
     19      H     6.88675652     0.66857059     5.34710831
     20      H     7.46559496    -1.53606853     4.32535574
     21      H     5.85096298    -2.61455815     2.75578502
     22      H     3.72755848    -1.53741961     2.21489076

Total System Charge              0.00000

 *** GO1_GOStep15 ***

 Energy gradients wrt nuclear displacements
 ==========================================

     Atom      Cartesian (a.u./angstrom)
                 X         Y         Z
 ----------------------------------------
     1 C     0.000148 -0.000050 -0.000152
     2 C    -0.000022  0.000080 -0.000037
     3 N    -0.000102 -0.000033  0.000205
     4 C     0.000178 -0.000177  0.000138
     5 C    -0.000224  0.000165 -0.000127
     6 C     0.000103 -0.000028  0.000132
     7 C    -0.000033  0.000157 -0.000201
     8 C    -0.000037  0.000056  0.000021
     9 C     0.000016  0.000047  0.000114
    10 C     0.000116  0.000035  0.000030
    11 C    -0.000451  0.000137 -0.000368
    12 O     0.000024  0.000020  0.000014
    13 O     0.000327 -0.000200  0.000067
    14 H    -0.000086 -0.000161  0.000007
    15 H     0.000044 -0.000135 -0.000016
    16 H    -0.000021 -0.000189  0.000059
    17 H    -0.000048 -0.000002 -0.000038
    18 H    -0.000072  0.000116 -0.000047
    19 H     0.000013  0.000118  0.000064
    20 H     0.000060  0.000067  0.000060
    21 H     0.000066 -0.000001  0.000041
    22 H    -0.000001 -0.000024  0.000033
 ----------------------------------------

 dE(predicted):    -0.10902E-05, dE(actual):     0.18916E-05, Trust radius:    0.020000, all in a.u.
 
----------------------------------------------------------------------
Geometry Convergence after Step  15       (Hartree/Angstrom,Angstrom)
----------------------------------------------------------------------
current energy                               -5.08475874 Hartree
energy change                       0.00000189     0.00022000    T
constrained gradient max            0.00042390     0.00010000    F
constrained gradient rms            0.00011945     0.00006667    F
gradient max                        0.00042390
gradient rms                        0.00011945
cart. step max                      0.00364131     0.01000000    T
cart. step rms                      0.00113294     0.00666667    T
 

--------
Geometry
--------
Formula: C10H9NO2
Atoms
  Index Symbol   x (angstrom)   y (angstrom)   z (angstrom)
      1      C     0.76968459     1.10591779     2.13396627
      2      C    -0.40088366     0.77508975     1.26821430
      3      N     1.84453040     0.33129838     2.28586935
      4      C     2.80479629     0.88164556     3.16310845
      5      C     4.05847349     0.21895611     3.47385855
      6      C     4.98586089     0.81627388     4.36271042
      7      C     6.19312780     0.18658604     4.66008877
      8      C     6.52087218    -1.05131035     4.08931973
      9      C     5.61399834    -1.65426502     3.21094119
     10      C     4.40133233    -1.03189858     2.90648911
     11      C     2.35297818     2.11020251     3.63974812
     12      O     2.63826167     3.03170405     4.35274148
     13      O     0.85019722     2.19841926     2.83393737
     14      H    -1.31608817     0.72323086     1.87216528
     15      H    -0.25453525    -0.18523432     0.76197125
     16      H    -0.54590462     1.55777542     0.51282143
     17      H     1.96255150    -0.56026592     1.82000187
     18      H     4.74608705     1.77596196     4.81184030
     19      H     6.88790689     0.66896846     5.34557858
     20      H     7.46535457    -1.53651572     4.32500145
     21      H     5.84934086    -2.61554723     2.75717745
     22      H     3.72601743    -1.53815290     2.21686930

Total System Charge              0.00000

 *** GO1_GOStep16 ***

 Energy gradients wrt nuclear displacements
 ==========================================

     Atom      Cartesian (a.u./angstrom)
                 X         Y         Z
 ----------------------------------------
     1 C     0.000004 -0.000136 -0.000228
     2 C    -0.000049 -0.000076 -0.000001
     3 N     0.000001 -0.000155  0.000239
     4 C     0.000019 -0.000089  0.000074
     5 C    -0.000040  0.000096 -0.000093
     6 C     0.000044  0.000059  0.000024
     7 C    -0.000058  0.000076  0.000053
     8 C     0.000034  0.000066  0.000026
     9 C     0.000014  0.000022  0.000053
    10 C     0.000056 -0.000019  0.000002
    11 C    -0.000339  0.000091 -0.000330
    12 O     0.000010  0.000050  0.000039
    13 O     0.000265  0.000047  0.000141
    14 H    -0.000057 -0.000141 -0.000021
    15 H     0.000036 -0.000091 -0.000009
    16 H    -0.000045 -0.000111  0.000009
    17 H     0.000025 -0.000010 -0.000059
    18 H    -0.000038  0.000077 -0.000041
    19 H     0.000020  0.000129 -0.000033
    20 H     0.000039  0.000105  0.000037
    21 H     0.000043  0.000030  0.000065
    22 H     0.000012 -0.000018  0.000054
 ----------------------------------------

 dE(predicted):    -0.59262E-06, dE(actual):     0.16367E-05, Trust radius:    0.020000, all in a.u.
 
----------------------------------------------------------------------
Geometry Convergence after Step  16       (Hartree/Angstrom,Angstrom)
----------------------------------------------------------------------
current energy                               -5.08475710 Hartree
energy change                       0.00000164     0.00022000    T
constrained gradient max            0.00031148     0.00010000    F
constrained gradient rms            0.00008865     0.00006667    F
gradient max                        0.00031148
gradient rms                        0.00008865
cart. step max                      0.00258602     0.01000000    T
cart. step rms                      0.00102188     0.00666667    T
 

--------
Geometry
--------
Formula: C10H9NO2
Atoms
  Index Symbol   x (angstrom)   y (angstrom)   z (angstrom)
      1      C     0.76926163     1.10643374     2.13401126
      2      C    -0.40097714     0.77384254     1.26831186
      3      N     1.84526065     0.33301123     2.28469038
      4      C     2.80557352     0.88328583     3.16210104
      5      C     4.05898800     0.21975640     3.47329691
      6      C     4.98673615     0.81689558     4.36177147
      7      C     6.19341505     0.18633759     4.65991139
      8      C     6.52042564    -1.05193905     4.08956769
      9      C     5.61336753    -1.65444289     3.21104851
     10      C     4.40100148    -1.03154523     2.90643393
     11      C     2.35395243     2.11064684     3.64096286
     12      O     2.63788699     3.03203093     4.35430671
     13      O     0.84794276     2.19822977     2.83464012
     14      H    -1.31577374     0.72064483     1.87263746
     15      H    -0.25349034    -0.18609156     0.76177111
     16      H    -0.54745860     1.55669375     0.51324389
     17      H     1.96466211    -0.55775381     1.81765452
     18      H     4.74767900     1.77672006     4.81088405
     19      H     6.88794856     0.66804790     5.34601892
     20      H     7.46422450    -1.53798619     4.32604042
     21      H     5.84793988    -2.61617096     2.75794079
     22      H     3.72539396    -1.53780732     2.21717472

Total System Charge              0.00000

 *** GO1_GOStep17 ***

 Energy gradients wrt nuclear displacements
 ==========================================

     Atom      Cartesian (a.u./angstrom)
                 X         Y         Z
 ----------------------------------------
     1 C    -0.000085 -0.000137 -0.000290
     2 C    -0.000045 -0.000267  0.000065
     3 N    -0.000062 -0.000130  0.000210
     4 C    -0.000053  0.000064 -0.000035
     5 C     0.000115 -0.000062  0.000084
     6 C    -0.000059  0.000170 -0.000114
     7 C     0.000066  0.000125  0.000098
     8 C     0.000107  0.000059  0.000046
     9 C     0.000049  0.000018 -0.000061
    10 C    -0.000025 -0.000076  0.000005
    11 C    -0.000239  0.000017 -0.000221
    12 O    -0.000010  0.000052 -0.000005
    13 O     0.000202  0.000134  0.000184
    14 H     0.000007 -0.000120 -0.000046
    15 H     0.000014 -0.000055  0.000008
    16 H    -0.000065 -0.000023 -0.000051
    17 H     0.000094 -0.000028 -0.000047
    18 H    -0.000000  0.000015 -0.000027
    19 H    -0.000053  0.000067 -0.000036
    20 H    -0.000022  0.000117  0.000051
    21 H     0.000015  0.000068  0.000108
    22 H     0.000051 -0.000010  0.000073
 ----------------------------------------
 
----------------------------------------------------------------------
Geometry Convergence after Step  17       (Hartree/Angstrom,Angstrom)
----------------------------------------------------------------------
current energy                               -5.08475647 Hartree
energy change                       0.00000063     0.00022000    T
constrained gradient max            0.00027075     0.00010000    F
constrained gradient rms            0.00009085     0.00006667    F
gradient max                        0.00027075
gradient rms                        0.00009085
cart. step max                      0.00255494     0.01000000    T
cart. step rms                      0.00085843     0.00666667    T
 

--------
Geometry
--------
Formula: C10H9NO2
Atoms
  Index Symbol   x (angstrom)   y (angstrom)   z (angstrom)
      1      C     0.76883674     1.10659316     2.13435615
      2      C    -0.40089707     0.77292017     1.26826150
      3      N     1.84579534     0.33419497     2.28392576
      4      C     2.80615889     0.88452660     3.16140240
      5      C     4.05928979     0.22037892     3.47304290
      6      C     4.98695358     0.81688276     4.36194259
      7      C     6.19339623     0.18585891     4.66017759
      8      C     6.52017031    -1.05228511     4.08945123
      9      C     5.61282119    -1.65451256     3.21105958
     10      C     4.40077080    -1.03106756     2.90626547
     11      C     2.35468451     2.11093828     3.64209356
     12      O     2.63750442     3.03232969     4.35562320
     13      O     0.84606569     2.19798339     2.83510940
     14      H    -1.31607346     0.72225880     1.87212847
     15      H    -0.25406930    -0.18838192     0.76417858
     16      H    -0.54600694     1.55413881     0.51118331
     17      H     1.96565996    -0.55652535     1.81694028
     18      H     4.74845495     1.77681481     4.81108515
     19      H     6.88816135     0.66744667     5.34610142
     20      H     7.46389546    -1.53855819     4.32569214
     21      H     5.84720589    -2.61612783     2.75764688
     22      H     3.72518168    -1.53696741     2.21675244

Total System Charge              0.00000

 *** GO1_GOStep18 ***

 Energy gradients wrt nuclear displacements
 ==========================================

     Atom      Cartesian (a.u./angstrom)
                 X         Y         Z
 ----------------------------------------
     1 C    -0.000107 -0.000151 -0.000198
     2 C    -0.000020 -0.000299  0.000061
     3 N    -0.000088 -0.000105  0.000118
     4 C    -0.000064  0.000099 -0.000168
     5 C     0.000245 -0.000090  0.000103
     6 C    -0.000174  0.000163 -0.000116
     7 C     0.000078  0.000068  0.000192
     8 C     0.000153  0.000113 -0.000018
     9 C     0.000004 -0.000037  0.000017
    10 C    -0.000070 -0.000057  0.000013
    11 C    -0.000206 -0.000049 -0.000103
    12 O    -0.000007  0.000118 -0.000007
    13 O     0.000122  0.000143  0.000134
    14 H     0.000050 -0.000109 -0.000042
    15 H    -0.000001 -0.000049  0.000026
    16 H    -0.000072 -0.000000 -0.000076
    17 H     0.000119 -0.000054 -0.000020
    18 H     0.000033  0.000005 -0.000041
    19 H    -0.000055  0.000075 -0.000080
    20 H    -0.000034  0.000127  0.000039
    21 H     0.000025  0.000094  0.000093
    22 H     0.000070 -0.000004  0.000072
 ----------------------------------------
 
----------------------------------------------------------------------
Geometry Convergence after Step  18       (Hartree/Angstrom,Angstrom)
----------------------------------------------------------------------
current energy                               -5.08475660 Hartree
energy change                      -0.00000013     0.00022000    T
constrained gradient max            0.00024347     0.00010000    F
constrained gradient rms            0.00009395     0.00006667    F
gradient max                        0.00024347
gradient rms                        0.00009395
cart. step max                      0.00560744     0.01000000    T
cart. step rms                      0.00167961     0.00666667    T
 

--------
Geometry
--------
Formula: C10H9NO2
Atoms
  Index Symbol   x (angstrom)   y (angstrom)   z (angstrom)
      1      C     0.76821534     1.10659905     2.13511788
      2      C    -0.40070039     0.77193028     1.26814332
      3      N     1.84584299     0.33494041     2.28410142
      4      C     2.80637928     0.88540998     3.16147666
      5      C     4.05940604     0.22096933     3.47308983
      6      C     4.98712070     0.81676901     4.36238403
      7      C     6.19341834     0.18536085     4.66037209
      8      C     6.51982760    -1.05272172     4.08934364
      9      C     5.61286024    -1.65382026     3.20983570
     10      C     4.40097588    -1.02992303     2.90524131
     11      C     2.35555033     2.11124304     3.64334451
     12      O     2.63739960     3.03287137     4.35657487
     13      O     0.84418108     2.19792897     2.83519612
     14      H    -1.31715500     0.72786623     1.87052363
     15      H    -0.25613833    -0.19265209     0.76968225
     16      H    -0.54154050     1.54935051     0.50638773
     17      H     1.96533985    -0.55635712     1.81818354
     18      H     4.74873053     1.77637368     4.81233023
     19      H     6.88814265     0.66643276     5.34673916
     20      H     7.46342952    -1.53935932     4.32542283
     21      H     5.84713375    -2.61521400     2.75584821
     22      H     3.72554049    -1.53515792     2.21508103

Total System Charge              0.00000

 *** GO1_GOStep19 ***

 Energy gradients wrt nuclear displacements
 ==========================================

     Atom      Cartesian (a.u./angstrom)
                 X         Y         Z
 ----------------------------------------
     1 C    -0.000091 -0.000116 -0.000024
     2 C     0.000037 -0.000208 -0.000016
     3 N    -0.000072 -0.000041  0.000021
     4 C    -0.000004  0.000098 -0.000256
     5 C     0.000170 -0.000127  0.000194
     6 C    -0.000158  0.000149 -0.000158
     7 C     0.000113  0.000075  0.000067
     8 C     0.000024  0.000045  0.000129
     9 C     0.000076  0.000059 -0.000071
    10 C    -0.000063  0.000015  0.000027
    11 C    -0.000148 -0.000036  0.000068
    12 O    -0.000036  0.000052 -0.000103
    13 O     0.000040  0.000053  0.000011
    14 H     0.000041 -0.000097 -0.000005
    15 H    -0.000011 -0.000073  0.000037
    16 H    -0.000056 -0.000052 -0.000062
    17 H     0.000089 -0.000065  0.000014
    18 H     0.000014  0.000010 -0.000012
    19 H    -0.000039  0.000095 -0.000062
    20 H    -0.000005  0.000118  0.000025
    21 H     0.000028  0.000063  0.000099
    22 H     0.000053 -0.000018  0.000077
 ----------------------------------------
 
----------------------------------------------------------------------
Geometry Convergence after Step  19       (Hartree/Angstrom,Angstrom)
----------------------------------------------------------------------
current energy                               -5.08475750 Hartree
energy change                      -0.00000091     0.00022000    T
constrained gradient max            0.00024219     0.00010000    F
constrained gradient rms            0.00007463     0.00006667    F
gradient max                        0.00024219
gradient rms                        0.00007463
cart. step max                      0.00378905     0.01000000    T
cart. step rms                      0.00123287     0.00666667    T
 

--------
Geometry
--------
Formula: C10H9NO2
Atoms
  Index Symbol   x (angstrom)   y (angstrom)   z (angstrom)
      1      C     0.76797890     1.10675388     2.13542124
      2      C    -0.40051490     0.77143279     1.26802421
      3      N     1.84540856     0.33491965     2.28501094
      4      C     2.80609424     0.88544960     3.16230236
      5      C     4.05923798     0.22113382     3.47343394
      6      C     4.98675787     0.81620474     4.36349359
      7      C     6.19323437     0.18489642     4.66078348
      8      C     6.52003110    -1.05253697     4.08855674
      9      C     5.61290527    -1.65340552     3.20909655
     10      C     4.40109525    -1.02926387     2.90466456
     11      C     2.35634525     2.11170771     3.64350720
     12      O     2.63807280     3.03378256     4.35600156
     13      O     0.84369062     2.19843233     2.83441522
     14      H    -1.31789900     0.73165528     1.86929287
     15      H    -0.25737674    -0.19528590     0.77323468
     16      H    -0.53846361     1.54626374     0.50318427
     17      H     1.96399682    -0.55715925     1.82042272
     18      H     4.74826763     1.77557467     4.81396840
     19      H     6.88779376     0.66549008     5.34772265
     20      H     7.46375307    -1.53919319     4.32425959
     21      H     5.84750680    -2.61426616     2.75407809
     22      H     3.72604398    -1.53374642     2.21354512

Total System Charge              0.00000

 *** GO1_GOStep20 ***

 Energy gradients wrt nuclear displacements
 ==========================================

     Atom      Cartesian (a.u./angstrom)
                 X         Y         Z
 ----------------------------------------
     1 C    -0.000032 -0.000031  0.000034
     2 C     0.000060 -0.000109 -0.000060
     3 N    -0.000053  0.000007 -0.000009
     4 C     0.000029  0.000050 -0.000133
     5 C     0.000050 -0.000015  0.000080
     6 C    -0.000090  0.000062 -0.000048
     7 C     0.000036  0.000053  0.000025
     8 C     0.000061  0.000139 -0.000032
     9 C    -0.000013 -0.000012  0.000119
    10 C    -0.000003  0.000046  0.000034
    11 C    -0.000084 -0.000023  0.000069
    12 O    -0.000053 -0.000013 -0.000145
    13 O     0.000003 -0.000083 -0.000066
    14 H    -0.000011 -0.000095  0.000016
    15 H    -0.000005 -0.000102  0.000028
    16 H    -0.000027 -0.000124 -0.000021
    17 H     0.000027 -0.000046  0.000023
    18 H     0.000003  0.000066 -0.000045
    19 H    -0.000022  0.000106 -0.000004
    20 H     0.000022  0.000093  0.000040
    21 H     0.000054  0.000044  0.000060
    22 H     0.000047 -0.000010  0.000036
 ----------------------------------------
 
----------------------------------------------------------------------
Geometry Convergence after Step  20       (Hartree/Angstrom,Angstrom)
----------------------------------------------------------------------
current energy                               -5.08475830 Hartree
energy change                      -0.00000079     0.00022000    T
constrained gradient max            0.00011905     0.00010000    F
constrained gradient rms            0.00004024     0.00006667    T
gradient max                        0.00011905
gradient rms                        0.00004024
cart. step max                      0.00168221     0.01000000    T
cart. step rms                      0.00047018     0.00666667    T
 

--------
Geometry
--------
Formula: C10H9NO2
Atoms
  Index Symbol   x (angstrom)   y (angstrom)   z (angstrom)
      1      C     0.76796904     1.10680023     2.13544916
      2      C    -0.40046063     0.77125312     1.26799238
      3      N     1.84506176     0.33460655     2.28577088
      4      C     2.80581994     0.88529274     3.16292719
      5      C     4.05914835     0.22118995     3.47359571
      6      C     4.98661050     0.81597876     4.36396501
      7      C     6.19312349     0.18468627     4.66100576
      8      C     6.51992174    -1.05265859     4.08856332
      9      C     5.61310957    -1.65302692     3.20845155
     10      C     4.40121012    -1.02892239     2.90429601
     11      C     2.35682713     2.11213818     3.64317491
     12      O     2.63871073     3.03456641     4.35514127
     13      O     0.84385495     2.19893385     2.83358554
     14      H    -1.31801892     0.73172397     1.86901397
     15      H    -0.25725214    -0.19562639     0.77349675
     16      H    -0.53810299     1.54582737     0.50286966
     17      H     1.96308470    -0.55801734     1.82210494
     18      H     4.74791717     1.77511975     4.81485568
     19      H     6.88772413     0.66516996     5.34800981
     20      H     7.46366780    -1.53933820     4.32417347
     21      H     5.84780886    -2.61370017     2.75306292
     22      H     3.72622469    -1.53315710     2.21291412

Total System Charge              0.00000

 *** GO1_GOStep21 ***

 Energy gradients wrt nuclear displacements
 ==========================================

     Atom      Cartesian (a.u./angstrom)
                 X         Y         Z
 ----------------------------------------
     1 C    -0.000000 -0.000033  0.000025
     2 C     0.000028 -0.000063 -0.000046
     3 N    -0.000003 -0.000034 -0.000019
     4 C     0.000016  0.000005 -0.000045
     5 C    -0.000013  0.000053 -0.000015
     6 C    -0.000022  0.000036  0.000004
     7 C     0.000008  0.000076 -0.000028
     8 C    -0.000003  0.000076  0.000059
     9 C     0.000034  0.000055  0.000037
    10 C     0.000012  0.000020  0.000060
    11 C    -0.000048 -0.000034 -0.000015
    12 O    -0.000041  0.000031 -0.000082
    13 O    -0.000024 -0.000084 -0.000074
    14 H    -0.000027 -0.000101  0.000007
    15 H     0.000006 -0.000114  0.000017
    16 H    -0.000017 -0.000143 -0.000010
    17 H     0.000002 -0.000044  0.000023
    18 H    -0.000023  0.000073 -0.000033
    19 H     0.000003  0.000126 -0.000009
    20 H     0.000036  0.000089  0.000042
    21 H     0.000053  0.000028  0.000060
    22 H     0.000023 -0.000018  0.000043
 ----------------------------------------
 
---------------------------------------------------------
Geometry Convergence after Step  21       ** CONVERGED **
---------------------------------------------------------
current energy                               -5.08475828 Hartree
energy change                       0.00000002     0.00022000    T
constrained gradient max            0.00004403     0.00010000    T
constrained gradient rms            0.00001841     0.00006667    T
gradient max                        0.00004403
gradient rms                        0.00001841
cart. step max                      0.00067032     0.01000000    T
cart. step rms                      0.00019605     0.00666667    T
 
Geometry optimization converged

Optimized geometry:

--------
Geometry
--------
Formula: C10H9NO2
Atoms
  Index Symbol   x (angstrom)   y (angstrom)   z (angstrom)
      1      C     0.76796904     1.10680023     2.13544916
      2      C    -0.40046063     0.77125312     1.26799238
      3      N     1.84506176     0.33460655     2.28577088
      4      C     2.80581994     0.88529274     3.16292719
      5      C     4.05914835     0.22118995     3.47359571
      6      C     4.98661050     0.81597876     4.36396501
      7      C     6.19312349     0.18468627     4.66100576
      8      C     6.51992174    -1.05265859     4.08856332
      9      C     5.61310957    -1.65302692     3.20845155
     10      C     4.40121012    -1.02892239     2.90429601
     11      C     2.35682713     2.11213818     3.64317491
     12      O     2.63871073     3.03456641     4.35514127
     13      O     0.84385495     2.19893385     2.83358554
     14      H    -1.31801892     0.73172397     1.86901397
     15      H    -0.25725214    -0.19562639     0.77349675
     16      H    -0.53810299     1.54582737     0.50286966
     17      H     1.96308470    -0.55801734     1.82210494
     18      H     4.74791717     1.77511975     4.81485568
     19      H     6.88772413     0.66516996     5.34800981
     20      H     7.46366780    -1.53933820     4.32417347
     21      H     5.84780886    -2.61370017     2.75306292
     22      H     3.72622469    -1.53315710     2.21291412

Total System Charge              0.00000

Performing a single point calculation on the final geometry ...

 *** adf ***



 ===========================
 A T T A C H E D   F I L E S
 ===========================
  
 Restart/tmp/amstmp_c4_fragA_opt_kid0.636284624/GO1_GOStep21.rkf*** GO1_GOStep21 ***



 ===============================
 M O D E L   P A R A M E T E R S
 ===============================
  
 DENSITY FUNCTIONAL POTENTIAL (scf)
    LDA:                               Exchange only                           == Not Default ==
    Gradient Corrections:              Becke88 LYP                             == Not Default ==

 SPIN  (restricted / unrestr.)
    Molecule:                          Restricted                               
    Fragments:                         Restricted                               

 OTHER ASPECTS
    Relativistic Corrections:          scalar (ZORA,MAPA)                       

    Nuclear Charge Density Model:      Point Charge Nuclei                      
    Core Treatment:                    Frozen Orbital(s)                        

    Hyperfine or Zeeman Interaction:   ---                                      

 Settings for Grimme D3 dispersion correction

      damping                        BJ
      s6                          1.000
[...]
                                    3.76%     1 P:x            -5.239  0.67     2 C
                                    3.68%     1 P:y            -5.239  0.67     4 C
                                    2.72%     2 P:z             7.649  0.00    11 N
                                    2.65%     1 P:z            -5.239  0.67     3 C
                                    2.59%     1 P:x            -5.239  0.67     4 C
                                    2.13%     1 P:x            -5.239  0.67     9 C
                                    2.13%     1 P:y            -5.239  0.67     8 C
                                   -2.04%     2 P:z             4.589  0.00     4 C
                                    2.03%     1 P:x            -5.239  0.67     5 C
                                    1.97%     1 P:y            -5.239  0.67     5 C
                                   -1.92%     2 P:z             4.589  0.00     1 C
                                   -1.91%     3 S              40.869  0.00    14 H
                                    1.85%     1 P:y            -5.239  0.67     9 C
                                   -1.83%     2 P:z             4.589  0.00     3 C
                                   -1.78%     3 S              40.869  0.00    16 H
                                   -1.71%     2 P:z             4.589  0.00     5 C
                                    1.62%     1 P:y            -5.239  0.67     7 C
                                   -1.61%     2 P:z             4.589  0.00     9 C
                                    1.59%     1 P:z            -5.239  0.67    10 C
                                   -1.58%     2 P:z             4.589  0.00     7 C
                                   -1.50%     2 P:z             4.589  0.00     6 C
                                    1.47%     1 P:y            -5.239  0.67     6 C
                                    1.43%     1 P:z            11.051  0.00    15 H
                                    1.40%     1 P:x            -5.239  0.67     3 C
                                    1.22%     1 P:x            -5.239  0.67     8 C
                                   -1.21%     2 P:x             4.589  0.00     3 C
                                    1.07%     1 P:x            -5.239  0.67     6 C
                                   -1.03%     2 P:x             4.589  0.00     1 C

 Energy gradients wrt nuclear displacements
 ==========================================

     Atom      Cartesian (a.u./angstrom)
                 X         Y         Z
 ----------------------------------------
     1 C    -0.000000 -0.000033  0.000025
     2 C     0.000028 -0.000063 -0.000046
     3 N    -0.000002 -0.000034 -0.000019
     4 C     0.000016  0.000005 -0.000045
     5 C    -0.000013  0.000053 -0.000014
     6 C    -0.000022  0.000035  0.000004
     7 C     0.000008  0.000077 -0.000028
     8 C    -0.000003  0.000076  0.000060
     9 C     0.000034  0.000055  0.000037
    10 C     0.000012  0.000021  0.000060
    11 C    -0.000048 -0.000034 -0.000015
    12 O    -0.000041  0.000031 -0.000082
    13 O    -0.000024 -0.000084 -0.000074
    14 H    -0.000027 -0.000101  0.000007
    15 H     0.000006 -0.000114  0.000017
    16 H    -0.000017 -0.000143 -0.000010
    17 H     0.000002 -0.000044  0.000023
    18 H    -0.000023  0.000073 -0.000033
    19 H     0.000003  0.000126 -0.000009
    20 H     0.000036  0.000089  0.000042
    21 H     0.000053  0.000028  0.000059
    22 H     0.000023 -0.000018  0.000043
 ----------------------------------------



 =======================================================================
 Electrostatic potential at the Nuclei due to electrons and other nuclei
 =======================================================================
  
         Atom                  Potential
         ----                  ---------
     1)   C                  14.66053095
     2)   C                  14.74168411
     3)   N                  18.32784053
     4)   C                  14.74101328
     5)   C                  14.76424758
     6)   C                  14.79464414
     7)   C                  14.79205488
     8)   C                  14.79474380
     9)   C                  14.78777452
    10)   C                  14.78373843
    11)   C                  14.69079858
    12)   O                  22.40804185
    13)   O                  22.35802559
    14)   H                   1.06728606
    15)   H                   1.06416175
    16)   H                   1.06726427
    17)   H                   0.95764766
    18)   H                   1.11692207
    19)   H                   1.11371140
    20)   H                   1.11259253
    21)   H                   1.10756925
    22)   H                   1.09591773
 Mulliken charges used for AMS results%charges...


    =====================
     CALCULATION RESULTS
    =====================

Energy (hartree)            -5.08475828

Gradients (hartree/bohr)
  Index   Atom            d/dx            d/dy            d/dz
      1      C   -0.0000002023   -0.0000174464    0.0000130103
      2      C    0.0000147691   -0.0000335880   -0.0000242756
      3      N   -0.0000012722   -0.0000180636   -0.0000100469
      4      C    0.0000084558    0.0000027858   -0.0000236747
      5      C   -0.0000068168    0.0000281937   -0.0000076375
      6      C   -0.0000115051    0.0000187296    0.0000018543
      7      C    0.0000042520    0.0000405131   -0.0000149563
      8      C   -0.0000014888    0.0000401007    0.0000314995
      9      C    0.0000178632    0.0000288867    0.0000193675
     10      C    0.0000064326    0.0000109284    0.0000315720
     11      C   -0.0000255049   -0.0000181437   -0.0000080653
     12      O   -0.0000217291    0.0000164908   -0.0000431843
     13      O   -0.0000126462   -0.0000445046   -0.0000391493
     14      H   -0.0000144228   -0.0000532665    0.0000037160
     15      H    0.0000032394   -0.0000602494    0.0000089099
     16      H   -0.0000089391   -0.0000754950   -0.0000052406
     17      H    0.0000009532   -0.0000234402    0.0000121006
     18      H   -0.0000121386    0.0000387078   -0.0000175681
     19      H    0.0000013620    0.0000666985   -0.0000049219
     20      H    0.0000190025    0.0000469196    0.0000224634
     21      H    0.0000281861    0.0000148390    0.0000314624
     22      H    0.0000121503   -0.0000095964    0.0000227644


--------------
Atomic charges
--------------
  Index   Atom    Charge
      1      C    0.5185
      2      C    0.5601
      3      N    0.0123
      4      C    0.0370
      5      C   -0.0504
      6      C    0.2079
      7      C    0.2208
      8      C    0.2005
      9      C    0.2235
     10      C    0.2137
     11      C    0.5668
     12      O   -0.5059
     13      O   -0.5335
     14      H   -0.1449
     15      H   -0.2117
     16      H   -0.1446
     17      H   -0.0778
     18      H   -0.1718
     19      H   -0.2252
     20      H   -0.2180
     21      H   -0.2300
     22      H   -0.2474


Dipole moment vector    (Debye):    -2.45051933   -4.13755779   -3.87233493
              magnitude (Debye):     6.17409162


-----------------------
Molecular orbitals info
-----------------------
n orbitals:              437
n spin:                    1

Note: only printing virtual orbitals with
      energy smaller than HOMO + 100. eV

HOMO (eV):              -4.5105
LUMO (eV):              -1.7661
HOMO-LUMO gap (eV):      2.7443

   Index   Energy (eV)    Occupation
     279       95.4730         0.000       
     278       95.0650         0.000       
     277       94.6907         0.000       
     276       94.3294         0.000       
     275       94.2798         0.000       
     274       93.5655         0.000       
     273       93.5130         0.000       
     272       92.7842         0.000       
     271       92.5997         0.000       
     270       92.0339         0.000       
     269       91.8458         0.000       
     268       91.5140         0.000       
     267       90.7412         0.000       
     266       89.7198         0.000       
     265       89.5926         0.000       
     264       89.3293         0.000       
     263       88.9596         0.000       
     262       88.4901         0.000       
     261       87.3131         0.000       
     260       86.7050         0.000       
     259       86.4813         0.000       
     258       86.3895         0.000       
     257       86.1352         0.000       
     256       85.1294         0.000       
     255       84.1435         0.000       
     254       84.0792         0.000       
     253       83.6400         0.000       
     252       83.2842         0.000       
     251       81.7164         0.000       
     250       81.6213         0.000       
     249       80.6295         0.000       
     248       80.6075         0.000       
     247       80.4335         0.000       
     246       80.0372         0.000       
     245       78.8312         0.000       
     244       78.6889         0.000       
     243       78.0966         0.000       
     242       77.5193         0.000       
     241       77.3342         0.000       
     240       76.7083         0.000       
     239       76.4978         0.000       
     238       76.0094         0.000       
     237       75.5518         0.000       
     236       75.3520         0.000       
     235       74.1789         0.000       
     234       73.6091         0.000       
     233       73.5017         0.000       
     232       72.8812         0.000       
     231       72.5307         0.000       
     230       71.1868         0.000       
     229       70.2417         0.000       
     228       69.8054         0.000       
     227       68.5751         0.000       
     226       68.5052         0.000       
     225       68.0322         0.000       
     224       67.7390         0.000       
     223       67.2211         0.000       
     222       67.0678         0.000       
     221       66.0821         0.000       
     220       65.3373         0.000       
     219       64.6394         0.000       
     218       64.1856         0.000       
     217       63.8773         0.000       
     216       63.1203         0.000       
     215       62.0057         0.000       
     214       61.6539         0.000       
     213       61.2779         0.000       
     212       61.0199         0.000       
     211       60.3132         0.000       
     210       60.2305         0.000       
     209       59.3061         0.000       
     208       58.9672         0.000       
     207       58.5703         0.000       
     206       57.5909         0.000       
     205       57.1233         0.000       
     204       56.8775         0.000       
     203       55.9118         0.000       
     202       55.5141         0.000       
     201       53.9091         0.000       
     200       53.7878         0.000       
     199       53.5044         0.000       
     198       53.0400         0.000       
     197       52.4954         0.000       
     196       51.9743         0.000       
     195       51.4835         0.000       
     194       51.1108         0.000       
     193       51.0008         0.000       
     192       50.5196         0.000       
     191       50.0342         0.000       
     190       49.8557         0.000       
     189       49.7646         0.000       
     188       49.2574         0.000       
     187       49.0060         0.000       
     186       47.8274         0.000       
     185       47.4460         0.000       
     184       47.1479         0.000       
     183       46.7698         0.000       
     182       45.3921         0.000       
     181       44.6589         0.000       
     180       44.5261         0.000       
     179       44.1252         0.000       
     178       43.8710         0.000       
     177       43.2533         0.000       
     176       42.9256         0.000       
     175       41.5874         0.000       
     174       41.2385         0.000       
     173       41.1970         0.000       
     172       40.5133         0.000       
     171       40.3497         0.000       
     170       39.9174         0.000       
     169       39.5943         0.000       
     168       38.9435         0.000       
     167       38.5347         0.000       
     166       38.0787         0.000       
     165       37.7017         0.000       
     164       37.4167         0.000       
     163       36.6497         0.000       
     162       36.5809         0.000       
     161       35.9581         0.000       
     160       35.8650         0.000       
     159       35.1066         0.000       
     158       34.9174         0.000       
     157       34.3732         0.000       
     156       34.1177         0.000       
     155       33.5620         0.000       
     154       33.1173         0.000       
     153       33.0628         0.000       
     152       31.3710         0.000       
     151       31.1594         0.000       
     150       31.1302         0.000       
     149       30.3974         0.000       
     148       30.1807         0.000       
     147       29.3978         0.000       
     146       29.3215         0.000       
     145       28.4364         0.000       
     144       28.2110         0.000       
     143       27.9982         0.000       
     142       27.7973         0.000       
     141       27.5474         0.000       
     140       26.6727         0.000       
     139       26.5764         0.000       
     138       26.5232         0.000       
     137       26.1707         0.000       
     136       25.9569         0.000       
     135       25.6721         0.000       
     134       25.3094         0.000       
     133       24.8537         0.000       
     132       24.7539         0.000       
     131       24.1431         0.000       
     130       23.7512         0.000       
     129       23.3032         0.000       
     128       22.9579         0.000       
     127       22.4809         0.000       
     126       22.0658         0.000       
     125       21.6793         0.000       
     124       21.3631         0.000       
     123       21.3166         0.000       
     122       21.0494         0.000       
     121       20.0145         0.000       
     120       19.8011         0.000       
     119       19.4726         0.000       
     118       18.3748         0.000       
     117       18.2751         0.000       
     116       18.1138         0.000       
     115       17.8098         0.000       
     114       17.6434         0.000       
     113       17.3364         0.000       
     112       16.9682         0.000       
     111       16.4099         0.000       
     110       15.5910         0.000       
     109       15.4009         0.000       
     108       15.3225         0.000       
     107       14.4040         0.000       
     106       14.1302         0.000       
     105       14.0251         0.000       
     104       13.4776         0.000       
     103       13.3613         0.000       
     102       12.8923         0.000       
     101       12.5458         0.000       
     100       11.7500         0.000       
      99       11.5618         0.000       
      98       11.0656         0.000       
      97       10.9552         0.000       
      96       10.5597         0.000       
      95       10.3276         0.000       
      94        9.8499         0.000       
      93        9.8094         0.000       
      92        9.3805         0.000       
      91        9.2971         0.000       
      90        9.2567         0.000       
      89        9.1099         0.000       
      88        9.0339         0.000       
      87        8.8543         0.000       
      86        8.8039         0.000       
      85        8.3991         0.000       
      84        8.1819         0.000       
      83        7.6910         0.000       
      82        7.5053         0.000       
      81        7.2358         0.000       
      80        7.1014         0.000       
      79        6.7648         0.000       
      78        6.4696         0.000       
      77        6.2326         0.000       
      76        6.1796         0.000       
      75        5.5708         0.000       
      74        5.3987         0.000       
      73        5.3005         0.000       
      72        5.1878         0.000       
      71        5.0536         0.000       
      70        4.7238         0.000       
      69        4.6771         0.000       
      68        4.4231         0.000       
      67        3.8765         0.000       
      66        3.7392         0.000       
      65        3.2884         0.000       
      64        3.2269         0.000       
      63        2.8896         0.000       
      62        2.8750         0.000       
      61        2.7620         0.000       
      60        2.2012         0.000       
      59        1.7022         0.000       
      58        1.3624         0.000       
      57        1.2661         0.000       
      56        1.0779         0.000       
      55        0.9155         0.000       
      54        0.8155         0.000       
      53        0.2294         0.000       
      52        0.1638         0.000       
      51       -0.2957         0.000       
      50       -1.0192         0.000       
      49       -1.1503         0.000       
      48       -1.1784         0.000       
      47       -1.7661         0.000 < LUMO
      46       -4.5105         2.000 < HOMO
      45       -6.1613         2.000       
      44       -6.5659         2.000       
      43       -6.8998         2.000       
      42       -8.2186         2.000       
      41       -8.3051         2.000       
      40       -8.5062         2.000       
      39       -9.0700         2.000       
      38       -9.2342         2.000       
      37       -9.4129         2.000       
      36      -10.1518         2.000       
      35      -10.2928         2.000       
      34      -10.4780         2.000       
      33      -10.6588         2.000       
      32      -10.7853         2.000       
      31      -10.9279         2.000       
      30      -11.3459         2.000       
      29      -11.6645         2.000       
      28      -12.1721         2.000       
      27      -12.5413         2.000       
      26      -13.6256         2.000       
      25      -14.1167         2.000       
      24      -14.7717         2.000       
      23      -15.0497         2.000       
      22      -16.2211         2.000       
      21      -17.6178         2.000       
      20      -18.2950         2.000       
      19      -18.8711         2.000       
      18      -19.9730         2.000       
      17      -21.1435         2.000       
      16      -24.1871         2.000       
      15      -25.9930         2.000       
      14      -27.5628         2.000       
      13     -269.8624         2.000       
      12     -269.8677         2.000       
      11     -269.9524         2.000       
      10     -270.0643         2.000       
       9     -270.1482         2.000       
       8     -270.6483         2.000       
       7     -271.1782         2.000       
       6     -271.1865         2.000       
       5     -272.7949         2.000       
       4     -273.4581         2.000       
       3     -383.8955         2.000       
       2     -511.2952         2.000       
       1     -512.6824         2.000       

AMS application finished. Exiting.
NORMAL TERMINATION
     Total cpu time:    1967.02
  Total system time:      11.08
 Total elapsed time:    1989.09
NORMAL TERMINATION
