srun: Job 663080 step creation temporarily disabled, retrying (Requested nodes are busy)
srun: Job 663080 step creation still disabled, retrying (Requested nodes are busy)
srun: Job 663080 step creation still disabled, retrying (Requested nodes are busy)
srun: Job 663080 step creation still disabled, retrying (Requested nodes are busy)
srun: Job 663080 step creation still disabled, retrying (Requested nodes are busy)
srun: Job 663080 step creation still disabled, retrying (Requested nodes are busy)
srun: Job 663080 step creation still disabled, retrying (Requested nodes are busy)
srun: Job 663080 step creation still disabled, retrying (Requested nodes are busy)
srun: Job 663080 step creation still disabled, retrying (Requested nodes are busy)
srun: Job 663080 step creation still disabled, retrying (Requested nodes are busy)
srun: Job 663080 step creation still disabled, retrying (Requested nodes are busy)
srun: Job 663080 step creation still disabled, retrying (Requested nodes are busy)
srun: Job 663080 step creation still disabled, retrying (Requested nodes are busy)
srun: Job 663080 step creation still disabled, retrying (Requested nodes are busy)
srun: Job 663080 step creation still disabled, retrying (Requested nodes are busy)
srun: Job 663080 step creation still disabled, retrying (Requested nodes are busy)
srun: Job 663080 step creation still disabled, retrying (Requested nodes are busy)
srun: Job 663080 step creation still disabled, retrying (Requested nodes are busy)
srun: Job 663080 step creation still disabled, retrying (Requested nodes are busy)
srun: Job 663080 step creation still disabled, retrying (Requested nodes are busy)
srun: Job 663080 step creation still disabled, retrying (Requested nodes are busy)
srun: Job 663080 step creation still disabled, retrying (Requested nodes are busy)
srun: Job 663080 step creation still disabled, retrying (Requested nodes are busy)
srun: Step created for StepId=663080.46

 *******************************************************************************
 *                                                                             *
 *  --------------------------------                                           *
 *   Amsterdam Modeling Suite (AMS)              2026.103                      *
 *  --------------------------------                                           *
 *                                               r260501 2026-05-01 873454b5   *
 *                                                                             *
 *                                                                             *
 *                              =================                              *
 *                              |               |                              *
 *                              |     A M S     |                              *
 *                              |               |                              *
 *                              =================                              *
 *                                                                             *
 *                                                                             *
 *   Online information and documentation:  https://www.scm.com/support/       *
 *   E-mail:  support@scm.com   info@scm.com                                   *
 *                                                                             *
 *   Scientific publications using AMS results must be properly referenced     *
 *   See the User Manuals (or the web site) for recommended citations          *
 *   The terms and conditions of the End User License Agreement apply to       *
 *   the use of AMS, https://www.scm.com/license-terms/                        *
 *                                                                             *
 **********************  x86_64_linux_intel / intelmpi  ************************
 
 Licensed to: Jong-June Jeon / University of Seoul 2026-06-02 13:44:15
 SCM User ID: u30731
  
 AMS 2026.103  RunTime: Jun04-2026 02:43:19  ShM Nodes: 1  Procs: 1

 AMS jobname: c2_fragB_ts
 AMS jobid  : 1623051423

 Start   directory: /gpfs/home1/yeseo1ee/projects/eda-asm-prediction/ADF_800/adf_outputs/batch_005/qmrxn20_e2_D_E_A_E_B_B/
 Results directory: /gpfs/home1/yeseo1ee/projects/eda-asm-prediction/ADF_800/adf_outputs/batch_005/qmrxn20_e2_D_E_A_E_B_B/c2_fragB_ts.results/
 Scratch directory: /tmp/amstmp_c2_fragB_ts_kid0.1623051423/

 RNG seed: 2002049095 973761204 -1805715456 -1667081125 514095129 -1350512995 -789774181 -166688547



                      ************************************************************************
                      *  ADF 2026.103  RunTime: Jun04-2026 02:43:19  ShM Nodes: 1  Procs: 1  *
                      ************************************************************************
  

       ****************************
       * SINGLE POINT CALCULATION *
       ****************************

--------
Geometry
--------
Formula: C3H8ClN2
Atoms
  Index Symbol   x (angstrom)   y (angstrom)   z (angstrom)
      1      C    -0.29521683    -0.02832145    -0.25852728
      2      C    -0.27365404    -0.10943900     1.16535552
      3     Cl     1.73335488     0.05763647    -0.95842430
      4      H     0.09257984     0.83147460     1.60886628
      5      C    -0.80048726    -1.23843104    -0.99764665
      6      H    -0.29461899    -2.13497382    -0.64740576
      7      H    -1.86882200    -1.32254570    -0.76943162
      8      H    -0.65893269    -1.10563432    -2.06943727
      9      N    -0.82703889     1.19029936    -0.81869075
     10      H    -0.35898479     1.96530116    -0.35938156
     11      H    -1.79426251     1.19988386    -0.49305601
     12      N     0.30670028    -1.33132512     1.69796441
     13      H     0.07957469    -1.41252632     2.68071086
     14      H     1.31990745    -1.27932560     1.61031054

Total System Charge              0.00000


----------------
ADF Engine Input
----------------
 
   Basis
     Type TZ2P
     Core None
   End
   XC
     GGA BLYP
     Dispersion GRIMME3 BJDAMP
   End
   Symmetry NOSYM
   NumericalQuality Normal
   Unrestricted No
   SCF
     Iterations 200
     Converge 1.0e-6
   End
   Save TAPE21
 

 Title: *** (NO TITLE) ***

 *** adf ***



 ===========================
 A T T A C H E D   F I L E S
 ===========================
  



 ===============================
 M O D E L   P A R A M E T E R S
 ===============================
  
 DENSITY FUNCTIONAL POTENTIAL (scf)
    LDA:                               Exchange only                           == Not Default ==
    Gradient Corrections:              Becke88 LYP                             == Not Default ==

 SPIN  (restricted / unrestr.)
    Molecule:                          Restricted                               
    Fragments:                         Restricted                               

 OTHER ASPECTS
    Relativistic Corrections:          scalar (ZORA,MAPA)                       

    Nuclear Charge Density Model:      Point Charge Nuclei                      
    Core Treatment:                    Frozen Orbital(s)                        

    Hyperfine or Zeeman Interaction:   ---                                      

 Settings for Grimme D3 dispersion correction

      damping                        BJ
      s6                          1.000
      s8                          2.700
      a1                          0.430
      a2                          4.236

 Other (technical) parameters

      alpha                      14.000
      version                         4
 


 Fragment File(s)
 ----------------
 C:
         file : /gpfs/home1/yeseo1ee/projects/eda-asm-prediction/ADF_800/adf_outputs/batch_005/qmrxn20_e2_D_E_A_E_B_B/c2_fragB_ts.results/t21.50BA88D5.C
         jobid: 0
         title: Carbon (TZ2P)
 Cl:
         file : /gpfs/home1/yeseo1ee/projects/eda-asm-prediction/ADF_800/adf_outputs/batch_005/qmrxn20_e2_D_E_A_E_B_B/c2_fragB_ts.results/t21.3FD35465.Cl
         jobid: 0
         title: Chlorine (TZ2P)
 H:
         file : /gpfs/home1/yeseo1ee/projects/eda-asm-prediction/ADF_800/adf_outputs/batch_005/qmrxn20_e2_D_E_A_E_B_B/c2_fragB_ts.results/t21.6F35CCAB.H
         jobid: 0
         title: Hydrogen (TZ2P)
 N:
         file : /gpfs/home1/yeseo1ee/projects/eda-asm-prediction/ADF_800/adf_outputs/batch_005/qmrxn20_e2_D_E_A_E_B_B/c2_fragB_ts.results/t21.44EAA48D.N
         jobid: 0
         title: Nitrogen (TZ2P)



 ===============
 G E O M E T R Y  ***  3D  Molecule  ***
 ===============
  

 ATOMS
 =====                            X Y Z                    CHARGE
                                (Angstrom)             Nucl     +Core       At.Mass
                       --------------------------    ----------------       -------
    1  C              -0.2952   -0.0283   -0.2585      6.00      6.00       12.0000
    2  C              -0.2737   -0.1094    1.1654      6.00      6.00       12.0000
    3  Cl              1.7334    0.0576   -0.9584     17.00     17.00       34.9689
    4  H               0.0926    0.8315    1.6089      1.00      1.00        1.0078
    5  C              -0.8005   -1.2384   -0.9976      6.00      6.00       12.0000
    6  H              -0.2946   -2.1350   -0.6474      1.00      1.00        1.0078
    7  H              -1.8688   -1.3225   -0.7694      1.00      1.00        1.0078
    8  H              -0.6589   -1.1056   -2.0694      1.00      1.00        1.0078
    9  N              -0.8270    1.1903   -0.8187      7.00      7.00       14.0031
   10  H              -0.3590    1.9653   -0.3594      1.00      1.00        1.0078
   11  H              -1.7943    1.1999   -0.4931      1.00      1.00        1.0078
   12  N               0.3067   -1.3313    1.6980      7.00      7.00       14.0031
   13  H               0.0796   -1.4125    2.6807      1.00      1.00        1.0078
   14  H               1.3199   -1.2793    1.6103      1.00      1.00        1.0078


 FRAGMENTS
 =========                                     Atoms in this Fragment     Cart. coord.s (Angstrom)
                                               -------------------------------------------------------
    1  C                                                 1  C           -0.2952   -0.0283   -0.2585
    2  C                                                 2  C           -0.2737   -0.1094    1.1654
    3  C                                                 5  C           -0.8005   -1.2384   -0.9976
    4  Cl                                                3  Cl           1.7334    0.0576   -0.9584
    5  H                                                 4  H            0.0926    0.8315    1.6089
    6  H                                                 6  H           -0.2946   -2.1350   -0.6474
    7  H                                                 7  H           -1.8688   -1.3225   -0.7694
    8  H                                                 8  H           -0.6589   -1.1056   -2.0694
    9  H                                                10  H           -0.3590    1.9653   -0.3594
   10  H                                                11  H           -1.7943    1.1999   -0.4931
   11  H                                                13  H            0.0796   -1.4125    2.6807
   12  H                                                14  H            1.3199   -1.2793    1.6103
   13  N                                                 9  N           -0.8270    1.1903   -0.8187
   14  N                                                12  N            0.3067   -1.3313    1.6980


 Interatomic Distance Matrix (Angstrom)
 --------------------------------------

   1)     0.000
   2)     1.426   0.000
   3)     2.148   2.927   0.000
   4)     2.092   1.103   3.144   0.000
   5)     1.505   2.496   2.846   3.446   0.000
   6)     2.142   2.718   3.003   3.747   1.087   0.000
   7)     2.101   2.786   3.862   3.761   1.096   1.776   0.000
   8)     2.138   3.407   2.883   4.225   1.089   1.793   1.789   0.000
   9)     1.443   2.436   2.803   2.621   2.435   3.372   2.721   2.620   0.000
  10)     1.997   2.576   2.894   2.316   3.296   4.111   3.641   3.528   1.015   0.000
  11)     1.952   2.603   3.737   2.849   2.681   3.660   2.539   3.015   1.021   1.632
          0.000
  12)     2.427   1.454   3.320   2.175   2.916   2.551   3.290   3.896   3.739   3.943
          3.952   0.000
  13)     3.270   2.030   4.259   2.487   3.786   3.426   3.963   4.817   4.454   4.566
          4.518   1.012   0.000
  14)     2.769   2.026   2.925   2.442   3.361   2.904   3.979   4.182   4.075   4.150
          4.502   1.018   1.644   0.000

 Min. Distance =    1.0119
 Max. Distance =    4.8170



 =====================================
 S Y M M E T R Y ,   E L E C T R O N S
 =====================================
  
 Symmetry: NOSYM

 Irreducible Representations, including subspecies
 -------------------------------------------------
 A


 Configuration of Valence Electrons
 ==================================
 ( determined in the SCF procedure )

 Total:   57

 ===============
 W A R N I N G :
 ===============

 The number of electrons does not correspond to doubly occupied orbitals,
 i.e. there would be one orbital with 0.5-alpha and 0.5-beta electrons.

 Normally, this corresponds to a doublet that should be treated within
 the UNRESTRICTED framework. For example, for a doublet:

   CHARGE   0.0 1.0
   Unrestricted

 See the online manual (http://www.scm.com) for more information on
 how to use the UNRESTRICTED framework.

 If you are definitely certain that for this job the restricted open-shell
 is appropriate, you can overcome this warning by placing on input:
   ALLOW ROKS

 In case of doubt, contact support@scm.com with this problem.

 Net Charge: 0 (Nuclei minus Electrons)

 Aufbau principle for MO occupations will be applied through SCF cycle no.     100
 Thereafter, the program will assign electrons to MOs that are spatially
 similar to the occupied MOs in a "reference" cycle ("KeepOrbitals").
 The reference cycle is always the PREVIOUS cycle: it will evolve with
 the SCF procedure.
 ***************************************************************************************************



                                      ****************************************
                                      *  B U I L D : (Fragments, Functions)  *
                                      ****************************************
  



 =======
 S F O s  ***  (Symmetrized Fragment Orbitals)  ***
 =======
  
 SFOs are linear combinations of (valence) Fragment Orbitals (FOs), such that the SFOs transform as the
 irreducible representations of the (molecular) symmetry group. Each SFO is therefore characterized by
 an irrep of the molecule and by a few (or only one) generating FOs.
 The SFOs constitute a symmetry-adapted basis for the Fock matrix. The MO eigenvector coefficients in
 this basis provide a direct interpretation of the MOs in terms of Frontier Orbital Theory.

 The SFOs are combined with auxiliary Core Functions (CFs) to ensure orthogonalization on the (frozen)
 Core Orbitals (COs). The Core-orthogonalized SFOs (CSFOs) constitute the true Fock basis.

 The FOs, and hence also the (C)SFOs are combinations of the elementary basis functions (BAS). The basis
 functions that participate in the description of the SFOs depend on the irrep. The indices of the
 involved functions are printed below for each irrep.
 (The complete list of primitive basis functions is printed in another section)

 Total nr. of (C)SFOs (summation over all irreps) :   252

 NOTE: a (C)SFO that is defined as a combination of more than one FO is usually NOT normalized.



                                       === A ===
 Nr. of SFOs :  252
 Cartesian basis functions that participate in this irrep (total number =   284) :
      1     2     3     4     5     6     9    12     7    10
     13     8    11    14    15    16    17    18    19    20
     21    22    23    24    25    26    27    28    29    30
     31    32    33    34    35    36    39    42    37    40
     43    38    41    44    45    46    47    48    49    50
     51    52    53    54    55    56    57    58    59    60
     61    62    63    64    65    66    69    72    67    70
     73    68    71    74    75    76    77    78    79    80
     81    82    83    84    85    86    87    88    89    90
     91    92    93    94   101   102   103    95    98   104
    107   110    96    99   105   108   111    97   100   106
    109   112   113   114   115   116   117   118   119   120
    121   122   123   124   125   126   127   128   129   130
    131   132   133   134   135   136   137   138   139   140
    141   142   143   144   145   146   147   148   149   150
    151   152   153   154   155   156   157   158   159   160
    161   162   163   164   165   166   167   168   169   170
    171   172   173   174   175   176   177   178   179   180
    181   182   183   184   185   186   187   188   189   190
    191   192   193   194   195   196   197   198   199   200
    201   202   203   204   205   206   207   208   209   210
    211   212   213   214   215   216   217   218   219   220
    221   222   223   224   225   226   227   228   229   230
    233   236   231   234   237   232   235   238   239   240
    241   242   243   244   245   246   247   248   249   250
    251   252   253   254   255   256   257   258   259   260
    263   266   261   264   267   262   265   268   269   270
    271   272   273   274   275   276   277   278   279   280
    281   282   283   284

    SFO  (index         Fragment          Generating    Expansion in Fragment Orbitals
  indx  incl.CFs)   Occup   Orb.Energy   FragmentType  Coeff.   Orbital     on Fragment
 --------------------------------------------------------------------------------------
     1       1      2.000     -10.066 au  C             1.00      1 S               1
                        (    -273.921 eV)
     2       2      2.000      -0.501 au  C             1.00      2 S               1
                        (     -13.620 eV)
     3       3       --         0.373 au  C             1.00      3 S               1
                        (      10.158 eV)
     4       4       --         5.405 au  C             1.00      4 S               1
                        (     147.073 eV)
     5       5       --        49.848 au  C             1.00      5 S               1
                        (    1356.422 eV)
     6       6      0.667      -0.193 au  C             1.00      1 P:x             1
                        (      -5.239 eV)
     7       7       --         0.169 au  C             1.00      2 P:x             1
                        (       4.589 eV)
     8       8       --         2.013 au  C             1.00      3 P:x             1
                        (      54.789 eV)
     9       9      0.667      -0.193 au  C             1.00      1 P:y             1
                        (      -5.239 eV)
    10      10       --         0.169 au  C             1.00      2 P:y             1
                        (       4.589 eV)
    11      11       --         2.013 au  C             1.00      3 P:y             1
                        (      54.789 eV)
    12      12      0.667      -0.193 au  C             1.00      1 P:z             1
                        (      -5.239 eV)
    13      13       --         0.169 au  C             1.00      2 P:z             1
                        (       4.589 eV)
    14      14       --         2.013 au  C             1.00      3 P:z             1
                        (      54.789 eV)
    15      15       --         1.243 au  C             1.00      1 D:z2            1
                        (      33.824 eV)
    16      16       --         1.243 au  C             1.00      1 D:x2-y2         1
                        (      33.824 eV)
    17      17       --         1.243 au  C             1.00      1 D:xy            1
                        (      33.824 eV)
    18      18       --         1.243 au  C             1.00      1 D:xz            1
                        (      33.824 eV)
    19      19       --         1.243 au  C             1.00      1 D:yz            1
                        (      33.824 eV)
    20      20       --         4.016 au  C             1.00      1 F:z3            1
                        (     109.271 eV)
    21      21       --         4.016 au  C             1.00      1 F:z             1
                        (     109.271 eV)
    22      22       --         4.016 au  C             1.00      1 F:xyz           1
                        (     109.271 eV)
    23      23       --         4.016 au  C             1.00      1 F:z2x           1
                        (     109.271 eV)
    24      24       --         4.016 au  C             1.00      1 F:z2y           1
                        (     109.271 eV)
    25      25       --         4.016 au  C             1.00      1 F:x             1
                        (     109.271 eV)
    26      26       --         4.016 au  C             1.00      1 F:y             1
                        (     109.271 eV)
    27      27      2.000     -10.066 au  C             1.00      1 S               2
                        (    -273.921 eV)
    28      28      2.000      -0.501 au  C             1.00      2 S               2
                        (     -13.620 eV)
    29      29       --         0.373 au  C             1.00      3 S               2
                        (      10.158 eV)
    30      30       --         5.405 au  C             1.00      4 S               2
                        (     147.073 eV)
    31      31       --        49.848 au  C             1.00      5 S               2
                        (    1356.422 eV)
    32      32      0.667      -0.193 au  C             1.00      1 P:x             2
                        (      -5.239 eV)
    33      33       --         0.169 au  C             1.00      2 P:x             2
                        (       4.589 eV)
    34      34       --         2.013 au  C             1.00      3 P:x             2
                        (      54.789 eV)
    35      35      0.667      -0.193 au  C             1.00      1 P:y             2
                        (      -5.239 eV)
    36      36       --         0.169 au  C             1.00      2 P:y             2
                        (       4.589 eV)
    37      37       --         2.013 au  C             1.00      3 P:y             2
                        (      54.789 eV)
    38      38      0.667      -0.193 au  C             1.00      1 P:z             2
                        (      -5.239 eV)
    39      39       --         0.169 au  C             1.00      2 P:z             2
                        (       4.589 eV)
    40      40       --         2.013 au  C             1.00      3 P:z             2
                        (      54.789 eV)
    41      41       --         1.243 au  C             1.00      1 D:z2            2
                        (      33.824 eV)
    42      42       --         1.243 au  C             1.00      1 D:x2-y2         2
                        (      33.824 eV)
    43      43       --         1.243 au  C             1.00      1 D:xy            2
                        (      33.824 eV)
    44      44       --         1.243 au  C             1.00      1 D:xz            2
                        (      33.824 eV)
    45      45       --         1.243 au  C             1.00      1 D:yz            2
                        (      33.824 eV)
    46      46       --         4.016 au  C             1.00      1 F:z3            2
                        (     109.271 eV)
    47      47       --         4.016 au  C             1.00      1 F:z             2
                        (     109.271 eV)
    48      48       --         4.016 au  C             1.00      1 F:xyz           2
                        (     109.271 eV)
    49      49       --         4.016 au  C             1.00      1 F:z2x           2
                        (     109.271 eV)
    50      50       --         4.016 au  C             1.00      1 F:z2y           2
                        (     109.271 eV)
    51      51       --         4.016 au  C             1.00      1 F:x             2
                        (     109.271 eV)
    52      52       --         4.016 au  C             1.00      1 F:y             2
                        (     109.271 eV)
    53      53      2.000     -10.066 au  C             1.00      1 S               3
                        (    -273.921 eV)
    54      54      2.000      -0.501 au  C             1.00      2 S               3
                        (     -13.620 eV)
    55      55       --         0.373 au  C             1.00      3 S               3
                        (      10.158 eV)
    56      56       --         5.405 au  C             1.00      4 S               3
                        (     147.073 eV)
    57      57       --        49.848 au  C             1.00      5 S               3
                        (    1356.422 eV)
    58      58      0.667      -0.193 au  C             1.00      1 P:x             3
                        (      -5.239 eV)
    59      59       --         0.169 au  C             1.00      2 P:x             3
                        (       4.589 eV)
    60      60       --         2.013 au  C             1.00      3 P:x             3
                        (      54.789 eV)
    61      61      0.667      -0.193 au  C             1.00      1 P:y             3
                        (      -5.239 eV)
    62      62       --         0.169 au  C             1.00      2 P:y             3
                        (       4.589 eV)
    63      63       --         2.013 au  C             1.00      3 P:y             3
                        (      54.789 eV)
    64      64      0.667      -0.193 au  C             1.00      1 P:z             3
                        (      -5.239 eV)
    65      65       --         0.169 au  C             1.00      2 P:z             3
                        (       4.589 eV)
    66      66       --         2.013 au  C             1.00      3 P:z             3
                        (      54.789 eV)
    67      67       --         1.243 au  C             1.00      1 D:z2            3
                        (      33.824 eV)
    68      68       --         1.243 au  C             1.00      1 D:x2-y2         3
                        (      33.824 eV)
    69      69       --         1.243 au  C             1.00      1 D:xy            3
                        (      33.824 eV)
    70      70       --         1.243 au  C             1.00      1 D:xz            3
                        (      33.824 eV)
    71      71       --         1.243 au  C             1.00      1 D:yz            3
                        (      33.824 eV)
    72      72       --         4.016 au  C             1.00      1 F:z3            3
                        (     109.271 eV)
    73      73       --         4.016 au  C             1.00      1 F:z             3
                        (     109.271 eV)
    74      74       --         4.016 au  C             1.00      1 F:xyz           3
                        (     109.271 eV)
    75      75       --         4.016 au  C             1.00      1 F:z2x           3
                        (     109.271 eV)
    76      76       --         4.016 au  C             1.00      1 F:z2y           3
                        (     109.271 eV)
    77      77       --         4.016 au  C             1.00      1 F:x             3
                        (     109.271 eV)
    78      78       --         4.016 au  C             1.00      1 F:y             3
                        (     109.271 eV)
    79      79      2.000    -101.116 au  Cl            1.00      1 S               4
                        (   -2751.516 eV)
    80      80      2.000      -9.276 au  Cl            1.00      2 S               4
                        (    -252.419 eV)
    81      81      2.000      -0.754 au  Cl            1.00      3 S               4
                        (     -20.523 eV)
    82      82       --         0.194 au  Cl            1.00      4 S               4
                        (       5.292 eV)
    83      83       --         1.998 au  Cl            1.00      5 S               4
                        (      54.377 eV)
    84      84       --        12.618 au  Cl            1.00      6 S               4
                        (     343.355 eV)
    85      85       --       205.328 au  Cl            1.00      7 S               4
                        (    5587.258 eV)
    86      86      2.000      -7.038 au  Cl            1.00      1 P:x             4
                        (    -191.503 eV)
    87      87      1.667      -0.310 au  Cl            1.00      2 P:x             4
                        (      -8.439 eV)
    88      88       --         0.226 au  Cl            1.00      3 P:x             4
                        (       6.147 eV)
    89      89       --         2.102 au  Cl            1.00      4 P:x             4
                        (      57.194 eV)
    90      90       --        18.665 au  Cl            1.00      5 P:x             4
                        (     507.904 eV)
    91      91      2.000      -7.038 au  Cl            1.00      1 P:y             4
                        (    -191.503 eV)
    92      92      1.667      -0.310 au  Cl            1.00      2 P:y             4
                        (      -8.439 eV)
    93      93       --         0.226 au  Cl            1.00      3 P:y             4
                        (       6.147 eV)
    94      94       --         2.102 au  Cl            1.00      4 P:y             4
                        (      57.194 eV)
    95      95       --        18.665 au  Cl            1.00      5 P:y             4
                        (     507.904 eV)
    96      96      2.000      -7.038 au  Cl            1.00      1 P:z             4
                        (    -191.503 eV)
    97      97      1.667      -0.310 au  Cl            1.00      2 P:z             4
                        (      -8.439 eV)
    98      98       --         0.226 au  Cl            1.00      3 P:z             4
                        (       6.147 eV)
    99      99       --         2.102 au  Cl            1.00      4 P:z             4
                        (      57.194 eV)
   100     100       --        18.665 au  Cl            1.00      5 P:z             4
                        (     507.904 eV)
   101     101       --         0.388 au  Cl            1.00      1 D:z2            4
                        (      10.568 eV)
   102     102       --         0.388 au  Cl            1.00      1 D:x2-y2         4
                        (      10.568 eV)
   103     103       --         0.388 au  Cl            1.00      1 D:xy            4
                        (      10.568 eV)
   104     104       --         0.388 au  Cl            1.00      1 D:xz            4
                        (      10.568 eV)
   105     105       --         0.388 au  Cl            1.00      1 D:yz            4
                        (      10.568 eV)
   106     106       --         1.191 au  Cl            1.00      1 F:z3            4
                        (      32.399 eV)
   107     107       --         1.191 au  Cl            1.00      1 F:z             4
                        (      32.399 eV)
   108     108       --         1.191 au  Cl            1.00      1 F:xyz           4
                        (      32.399 eV)
   109     109       --         1.191 au  Cl            1.00      1 F:z2x           4
                        (      32.399 eV)
   110     110       --         1.191 au  Cl            1.00      1 F:z2y           4
                        (      32.399 eV)
   111     111       --         1.191 au  Cl            1.00      1 F:x             4
                        (      32.399 eV)
   112     112       --         1.191 au  Cl            1.00      1 F:y             4
                        (      32.399 eV)
   113     113      1.000      -0.240 au  H             1.00      1 S               5
                        (      -6.532 eV)
   114     114       --         0.088 au  H             1.00      2 S               5
                        (       2.394 eV)
   115     115       --         1.502 au  H             1.00      3 S               5
                        (      40.869 eV)
   116     116       --         0.406 au  H             1.00      1 P:x             5
                        (      11.051 eV)
   117     117       --         0.406 au  H             1.00      1 P:y             5
                        (      11.051 eV)
   118     118       --         0.406 au  H             1.00      1 P:z             5
                        (      11.051 eV)
   119     119       --         2.569 au  H             1.00      1 D:z2            5
                        (      69.917 eV)
   120     120       --         2.569 au  H             1.00      1 D:x2-y2         5
                        (      69.917 eV)
   121     121       --         2.569 au  H             1.00      1 D:xy            5
                        (      69.917 eV)
   122     122       --         2.569 au  H             1.00      1 D:xz            5
                        (      69.917 eV)
   123     123       --         2.569 au  H             1.00      1 D:yz            5
                        (      69.917 eV)
   124     124      1.000      -0.240 au  H             1.00      1 S               6
                        (      -6.532 eV)
   125     125       --         0.088 au  H             1.00      2 S               6
                        (       2.394 eV)
   126     126       --         1.502 au  H             1.00      3 S               6
                        (      40.869 eV)
   127     127       --         0.406 au  H             1.00      1 P:x             6
                        (      11.051 eV)
   128     128       --         0.406 au  H             1.00      1 P:y             6
                        (      11.051 eV)
   129     129       --         0.406 au  H             1.00      1 P:z             6
                        (      11.051 eV)
   130     130       --         2.569 au  H             1.00      1 D:z2            6
                        (      69.917 eV)
   131     131       --         2.569 au  H             1.00      1 D:x2-y2         6
                        (      69.917 eV)
   132     132       --         2.569 au  H             1.00      1 D:xy            6
                        (      69.917 eV)
   133     133       --         2.569 au  H             1.00      1 D:xz            6
                        (      69.917 eV)
   134     134       --         2.569 au  H             1.00      1 D:yz            6
                        (      69.917 eV)
   135     135      1.000      -0.240 au  H             1.00      1 S               7
                        (      -6.532 eV)
   136     136       --         0.088 au  H             1.00      2 S               7
                        (       2.394 eV)
   137     137       --         1.502 au  H             1.00      3 S               7
                        (      40.869 eV)
   138     138       --         0.406 au  H             1.00      1 P:x             7
                        (      11.051 eV)
   139     139       --         0.406 au  H             1.00      1 P:y             7
                        (      11.051 eV)
   140     140       --         0.406 au  H             1.00      1 P:z             7
                        (      11.051 eV)
   141     141       --         2.569 au  H             1.00      1 D:z2            7
                        (      69.917 eV)
   142     142       --         2.569 au  H             1.00      1 D:x2-y2         7
                        (      69.917 eV)
   143     143       --         2.569 au  H             1.00      1 D:xy            7
                        (      69.917 eV)
   144     144       --         2.569 au  H             1.00      1 D:xz            7
                        (      69.917 eV)
   145     145       --         2.569 au  H             1.00      1 D:yz            7
                        (      69.917 eV)
   146     146      1.000      -0.240 au  H             1.00      1 S               8
                        (      -6.532 eV)
   147     147       --         0.088 au  H             1.00      2 S               8
                        (       2.394 eV)
   148     148       --         1.502 au  H             1.00      3 S               8
                        (      40.869 eV)
   149     149       --         0.406 au  H             1.00      1 P:x             8
                        (      11.051 eV)
   150     150       --         0.406 au  H             1.00      1 P:y             8
                        (      11.051 eV)
   151     151       --         0.406 au  H             1.00      1 P:z             8
                        (      11.051 eV)
   152     152       --         2.569 au  H             1.00      1 D:z2            8
                        (      69.917 eV)
   153     153       --         2.569 au  H             1.00      1 D:x2-y2         8
                        (      69.917 eV)
   154     154       --         2.569 au  H             1.00      1 D:xy            8
                        (      69.917 eV)
   155     155       --         2.569 au  H             1.00      1 D:xz            8
                        (      69.917 eV)
   156     156       --         2.569 au  H             1.00      1 D:yz            8
                        (      69.917 eV)
   157     157      1.000      -0.240 au  H             1.00      1 S               9
                        (      -6.532 eV)
   158     158       --         0.088 au  H             1.00      2 S               9
                        (       2.394 eV)
   159     159       --         1.502 au  H             1.00      3 S               9
                        (      40.869 eV)
   160     160       --         0.406 au  H             1.00      1 P:x             9
                        (      11.051 eV)
   161     161       --         0.406 au  H             1.00      1 P:y             9
                        (      11.051 eV)
   162     162       --         0.406 au  H             1.00      1 P:z             9
                        (      11.051 eV)
   163     163       --         2.569 au  H             1.00      1 D:z2            9
                        (      69.917 eV)
   164     164       --         2.569 au  H             1.00      1 D:x2-y2         9
                        (      69.917 eV)
   165     165       --         2.569 au  H             1.00      1 D:xy            9
                        (      69.917 eV)
   166     166       --         2.569 au  H             1.00      1 D:xz            9
                        (      69.917 eV)
   167     167       --         2.569 au  H             1.00      1 D:yz            9
                        (      69.917 eV)
   168     168      1.000      -0.240 au  H             1.00      1 S              10
                        (      -6.532 eV)
   169     169       --         0.088 au  H             1.00      2 S              10
                        (       2.394 eV)
   170     170       --         1.502 au  H             1.00      3 S              10
                        (      40.869 eV)
   171     171       --         0.406 au  H             1.00      1 P:x            10
                        (      11.051 eV)
   172     172       --         0.406 au  H             1.00      1 P:y            10
                        (      11.051 eV)
   173     173       --         0.406 au  H             1.00      1 P:z            10
                        (      11.051 eV)
   174     174       --         2.569 au  H             1.00      1 D:z2           10
                        (      69.917 eV)
   175     175       --         2.569 au  H             1.00      1 D:x2-y2        10
                        (      69.917 eV)
   176     176       --         2.569 au  H             1.00      1 D:xy           10
                        (      69.917 eV)
   177     177       --         2.569 au  H             1.00      1 D:xz           10
                        (      69.917 eV)
   178     178       --         2.569 au  H             1.00      1 D:yz           10
                        (      69.917 eV)
   179     179      1.000      -0.240 au  H             1.00      1 S              11
                        (      -6.532 eV)
   180     180       --         0.088 au  H             1.00      2 S              11
                        (       2.394 eV)
   181     181       --         1.502 au  H             1.00      3 S              11
                        (      40.869 eV)
   182     182       --         0.406 au  H             1.00      1 P:x            11
                        (      11.051 eV)
   183     183       --         0.406 au  H             1.00      1 P:y            11
                        (      11.051 eV)
   184     184       --         0.406 au  H             1.00      1 P:z            11
                        (      11.051 eV)
   185     185       --         2.569 au  H             1.00      1 D:z2           11
                        (      69.917 eV)
   186     186       --         2.569 au  H             1.00      1 D:x2-y2        11
                        (      69.917 eV)
   187     187       --         2.569 au  H             1.00      1 D:xy           11
                        (      69.917 eV)
   188     188       --         2.569 au  H             1.00      1 D:xz           11
                        (      69.917 eV)
   189     189       --         2.569 au  H             1.00      1 D:yz           11
                        (      69.917 eV)
   190     190      1.000      -0.240 au  H             1.00      1 S              12
                        (      -6.532 eV)
   191     191       --         0.088 au  H             1.00      2 S              12
                        (       2.394 eV)
   192     192       --         1.502 au  H             1.00      3 S              12
                        (      40.869 eV)
   193     193       --         0.406 au  H             1.00      1 P:x            12
                        (      11.051 eV)
   194     194       --         0.406 au  H             1.00      1 P:y            12
                        (      11.051 eV)
   195     195       --         0.406 au  H             1.00      1 P:z            12
                        (      11.051 eV)
   196     196       --         2.569 au  H             1.00      1 D:z2           12
                        (      69.917 eV)
   197     197       --         2.569 au  H             1.00      1 D:x2-y2        12
                        (      69.917 eV)
   198     198       --         2.569 au  H             1.00      1 D:xy           12
                        (      69.917 eV)
   199     199       --         2.569 au  H             1.00      1 D:xz           12
                        (      69.917 eV)
   200     200       --         2.569 au  H             1.00      1 D:yz           12
                        (      69.917 eV)
   201     201      2.000     -14.160 au  N             1.00      1 S              13
                        (    -385.319 eV)
   202     202      2.000      -0.678 au  N             1.00      2 S              13
                        (     -18.450 eV)
   203     203       --         0.517 au  N             1.00      3 S              13
                        (      14.073 eV)
   204     204       --         6.872 au  N             1.00      4 S              13
                        (     186.990 eV)
   205     205       --        63.432 au  N             1.00      5 S              13
                        (    1726.082 eV)
   206     206      1.000      -0.260 au  N             1.00      1 P:x            13
                        (      -7.062 eV)
   207     207       --         0.281 au  N             1.00      2 P:x            13
                        (       7.649 eV)
   208     208       --         3.275 au  N             1.00      3 P:x            13
                        (      89.105 eV)
   209     209      1.000      -0.260 au  N             1.00      1 P:y            13
                        (      -7.062 eV)
   210     210       --         0.281 au  N             1.00      2 P:y            13
                        (       7.649 eV)
   211     211       --         3.275 au  N             1.00      3 P:y            13
                        (      89.105 eV)
   212     212      1.000      -0.260 au  N             1.00      1 P:z            13
                        (      -7.062 eV)
   213     213       --         0.281 au  N             1.00      2 P:z            13
                        (       7.649 eV)
   214     214       --         3.275 au  N             1.00      3 P:z            13
                        (      89.105 eV)
   215     215       --         1.250 au  N             1.00      1 D:z2           13
                        (      34.005 eV)
   216     216       --         1.250 au  N             1.00      1 D:x2-y2        13
                        (      34.005 eV)
   217     217       --         1.250 au  N             1.00      1 D:xy           13
                        (      34.005 eV)
   218     218       --         1.250 au  N             1.00      1 D:xz           13
                        (      34.005 eV)
   219     219       --         1.250 au  N             1.00      1 D:yz           13
                        (      34.005 eV)
   220     220       --         4.013 au  N             1.00      1 F:z3           13
                        (     109.190 eV)
   221     221       --         4.013 au  N             1.00      1 F:z            13
                        (     109.190 eV)
   222     222       --         4.013 au  N             1.00      1 F:xyz          13
                        (     109.190 eV)
   223     223       --         4.013 au  N             1.00      1 F:z2x          13
                        (     109.190 eV)
   224     224       --         4.013 au  N             1.00      1 F:z2y          13
                        (     109.190 eV)
   225     225       --         4.013 au  N             1.00      1 F:x            13
                        (     109.190 eV)
   226     226       --         4.013 au  N             1.00      1 F:y            13
                        (     109.190 eV)
   227     227      2.000     -14.160 au  N             1.00      1 S              14
                        (    -385.319 eV)
   228     228      2.000      -0.678 au  N             1.00      2 S              14
                        (     -18.450 eV)
   229     229       --         0.517 au  N             1.00      3 S              14
                        (      14.073 eV)
   230     230       --         6.872 au  N             1.00      4 S              14
                        (     186.990 eV)
   231     231       --        63.432 au  N             1.00      5 S              14
                        (    1726.082 eV)
   232     232      1.000      -0.260 au  N             1.00      1 P:x            14
                        (      -7.062 eV)
   233     233       --         0.281 au  N             1.00      2 P:x            14
                        (       7.649 eV)
   234     234       --         3.275 au  N             1.00      3 P:x            14
                        (      89.105 eV)
   235     235      1.000      -0.260 au  N             1.00      1 P:y            14
                        (      -7.062 eV)
   236     236       --         0.281 au  N             1.00      2 P:y            14
                        (       7.649 eV)
   237     237       --         3.275 au  N             1.00      3 P:y            14
                        (      89.105 eV)
   238     238      1.000      -0.260 au  N             1.00      1 P:z            14
                        (      -7.062 eV)
   239     239       --         0.281 au  N             1.00      2 P:z            14
                        (       7.649 eV)
   240     240       --         3.275 au  N             1.00      3 P:z            14
                        (      89.105 eV)
   241     241       --         1.250 au  N             1.00      1 D:z2           14
                        (      34.005 eV)
   242     242       --         1.250 au  N             1.00      1 D:x2-y2        14
                        (      34.005 eV)
   243     243       --         1.250 au  N             1.00      1 D:xy           14
                        (      34.005 eV)
   244     244       --         1.250 au  N             1.00      1 D:xz           14
                        (      34.005 eV)
   245     245       --         1.250 au  N             1.00      1 D:yz           14
                        (      34.005 eV)
   246     246       --         4.013 au  N             1.00      1 F:z3           14
                        (     109.190 eV)
   247     247       --         4.013 au  N             1.00      1 F:z            14
                        (     109.190 eV)
   248     248       --         4.013 au  N             1.00      1 F:xyz          14
                        (     109.190 eV)
   249     249       --         4.013 au  N             1.00      1 F:z2x          14
                        (     109.190 eV)
   250     250       --         4.013 au  N             1.00      1 F:z2y          14
                        (     109.190 eV)
   251     251       --         4.013 au  N             1.00      1 F:x            14
                        (     109.190 eV)
   252     252       --         4.013 au  N             1.00      1 F:y            14
                        (     109.190 eV)



 ================================
 (Slater-type)  F U N C T I O N S  ***  (Basis and Fit)  ***
 ================================
  

 Atom Type    1  (C)
 ==============

 Valence Basis Sets:  10
 -----------------------
   1 S    7.680000
   1 S    5.000000
   2 S    1.280000
   2 S    2.100000
   2 S    4.600000
   2 P    0.820000
   2 P    1.480000
   2 P    2.940000
   3 D    2.200000
   4 F    3.300000

 Atom Type    2  (Cl)
 ==============

 Valence Basis Sets:  14
 -----------------------
   1 S   20.300000
   1 S   15.250000
   2 S    6.250000
   2 S    4.450000
   2 P    8.850000
   2 P    5.050000
   3 S    3.450000
   3 S    2.300000
   3 S    1.600000
   3 P    3.350000
   3 P    2.050000
   3 P    1.200000
   3 D    2.000000
   4 F    2.000000

 Atom Type    3  (H)
 ==============

 Valence Basis Sets:   5
 -----------------------
   1 S    0.690000
   1 S    0.920000
   1 S    1.580000
   2 P    1.250000
   3 D    2.500000

 Atom Type    4  (N)
 ==============

 Valence Basis Sets:  10
 -----------------------
   1 S    8.740000
   1 S    5.900000
   2 S    5.150000
   2 S    2.500000
   2 S    1.500000
   2 P    3.680000
   2 P    1.880000
   2 P    1.000000
   3 D    2.200000
   4 F    3.300000


 BAS: List of all Elementary Cartesian Basis Functions
 =====================================================

 The numbering in the list below (to the right of the function characteristics) is referred
 to in print-outs of MO eigenvectors and Mulliken populations in the BAS representation
 (as contrasted to the SFO representation).

 Notes:
 1. The functions are characterized by a polynomial prefactor (powers of x,y,z and r) and
    an exponential decay factor alpha.
 2. Since the basis sets are specific for an atom TYPE, the individual functions occur on
    all atoms of that type.
 3. The word 'Core' in the left margin signals that it is a Core Function (CF) : not a
    degree of freedom in the valence set, but only used to ensure orthogonalization of
    the other valence basis functions on the frozen Core Orbitals.


 (power of) X  Y  Z  R     Alpha  on Atom
            ==========     =====     ==========

 C                                    1    2    3
                                  ---------------------------------------------------------------------------
            0  0  0  0     7.680      1   31   61
            0  0  0  0     5.000      2   32   62
            0  0  0  1     1.280      3   33   63
            0  0  0  1     2.100      4   34   64
            0  0  0  1     4.600      5   35   65
            1  0  0  0     0.820      6   36   66
            0  1  0  0     0.820      7   37   67
            0  0  1  0     0.820      8   38   68
            1  0  0  0     1.480      9   39   69
            0  1  0  0     1.480     10   40   70
            0  0  1  0     1.480     11   41   71
            1  0  0  0     2.940     12   42   72
            0  1  0  0     2.940     13   43   73
            0  0  1  0     2.940     14   44   74
            2  0  0  0     2.200     15   45   75
            1  1  0  0     2.200     16   46   76
            1  0  1  0     2.200     17   47   77
            0  2  0  0     2.200     18   48   78
            0  1  1  0     2.200     19   49   79
            0  0  2  0     2.200     20   50   80
            3  0  0  0     3.300     21   51   81
            2  1  0  0     3.300     22   52   82
            2  0  1  0     3.300     23   53   83
            1  2  0  0     3.300     24   54   84
            1  1  1  0     3.300     25   55   85
            1  0  2  0     3.300     26   56   86
            0  3  0  0     3.300     27   57   87
            0  2  1  0     3.300     28   58   88
            0  1  2  0     3.300     29   59   89
            0  0  3  0     3.300     30   60   90

 Cl                                   4
                                  ---------------------------------------------------------------------------
            0  0  0  0    20.300     91
            0  0  0  0    15.250     92
            0  0  0  1     6.250     93
            0  0  0  1     4.450     94
            1  0  0  0     8.850     95
            0  1  0  0     8.850     96
            0  0  1  0     8.850     97
            1  0  0  0     5.050     98
            0  1  0  0     5.050     99
            0  0  1  0     5.050    100
            0  0  0  2     3.450    101
            0  0  0  2     2.300    102
            0  0  0  2     1.600    103
            1  0  0  1     3.350    104
            0  1  0  1     3.350    105
            0  0  1  1     3.350    106
            1  0  0  1     2.050    107
            0  1  0  1     2.050    108
            0  0  1  1     2.050    109
            1  0  0  1     1.200    110
            0  1  0  1     1.200    111
            0  0  1  1     1.200    112
            2  0  0  0     2.000    113
            1  1  0  0     2.000    114
            1  0  1  0     2.000    115
            0  2  0  0     2.000    116
            0  1  1  0     2.000    117
            0  0  2  0     2.000    118
            3  0  0  0     2.000    119
            2  1  0  0     2.000    120
            2  0  1  0     2.000    121
            1  2  0  0     2.000    122
            1  1  1  0     2.000    123
            1  0  2  0     2.000    124
            0  3  0  0     2.000    125
            0  2  1  0     2.000    126
            0  1  2  0     2.000    127
            0  0  3  0     2.000    128

 H                                    5    6    7    8    9   10   11   12
                                  ---------------------------------------------------------------------------
            0  0  0  0     0.690    129  141  153  165  177  189  201  213
            0  0  0  0     0.920    130  142  154  166  178  190  202  214
            0  0  0  0     1.580    131  143  155  167  179  191  203  215
            1  0  0  0     1.250    132  144  156  168  180  192  204  216
            0  1  0  0     1.250    133  145  157  169  181  193  205  217
            0  0  1  0     1.250    134  146  158  170  182  194  206  218
            2  0  0  0     2.500    135  147  159  171  183  195  207  219
            1  1  0  0     2.500    136  148  160  172  184  196  208  220
            1  0  1  0     2.500    137  149  161  173  185  197  209  221
            0  2  0  0     2.500    138  150  162  174  186  198  210  222
            0  1  1  0     2.500    139  151  163  175  187  199  211  223
            0  0  2  0     2.500    140  152  164  176  188  200  212  224

 N                                   13   14
                                  ---------------------------------------------------------------------------
            0  0  0  0     8.740    225  255
            0  0  0  0     5.900    226  256
            0  0  0  1     5.150    227  257
            0  0  0  1     2.500    228  258
            0  0  0  1     1.500    229  259
            1  0  0  0     3.680    230  260
            0  1  0  0     3.680    231  261
            0  0  1  0     3.680    232  262
            1  0  0  0     1.880    233  263
            0  1  0  0     1.880    234  264
            0  0  1  0     1.880    235  265
            1  0  0  0     1.000    236  266
            0  1  0  0     1.000    237  267
            0  0  1  0     1.000    238  268
            2  0  0  0     2.200    239  269
            1  1  0  0     2.200    240  270
            1  0  1  0     2.200    241  271
            0  2  0  0     2.200    242  272
            0  1  1  0     2.200    243  273
            0  0  2  0     2.200    244  274
            3  0  0  0     3.300    245  275
            2  1  0  0     3.300    246  276
            2  0  1  0     3.300    247  277
            1  2  0  0     3.300    248  278
            1  1  1  0     3.300    249  279
            1  0  2  0     3.300    250  280
            0  3  0  0     3.300    251  281
            0  2  1  0     3.300    252  282
            0  1  2  0     3.300    253  283
            0  0  3  0     3.300    254  284

 Total number of charge fitting functions (nprimf)       926
 Total number of Cartesian basis functions (naos)        284
 Total number of Cartesian core functions  (ncos)          0

 ***************************************************************************************************



                                              ***********************
                                              *  T E C H N I C A L  *
                                              ***********************
  



 =============================================================
 P A R A L L E L I Z A T I O N  and  V E C T O R I Z A T I O N
 =============================================================
  
 Nr of parallel processes:                                1
 Maximum vector length in NumInt loops:                 128



 =====================
 S C F   U P D A T E S
 =====================
  
 Max. nr. of cycles:                               200
 Convergence criterion:                              0.0000010000
   secondary criterion:                              0.0010000000

 Mix parameter (when DIIS does not apply):           0.2000000000
 Mixed ADIIS+SDIIS will be used                  
    Max number of expansion vectors:                10
    Pure ADIIS when Max([F,P]) is above              0.1000000000
    Pure SDIIS when Max([F,P]) is below              0.0010000000
 Automatic ElectronSmearing (in case of problematic SCF convergence) disabled



 =================
 P R E C I S I O N  ***  (General: NumInt, NeglectFunctionTails, ...)  ***
 =================
  

 NumInt:           Target precision:                 4.0000000000
 -------           Initial precision:                4.0000000000
                   Min. precision (optimization):    4.0000000000

 Neglect Functions:          Basis functions:        0.1000000000E-05
 ------------------          Fit functions:          0.1000000000E-05



 ===========================
 L I N E A R   S C A L I N G
 ===========================
  

 Cut-off radii density fit:                        0.1000000000E-07
 Overlap cut-off criterion AO matrix elements:     0.1000000000E-05
 Cut-offs for Coulomb potential and fitted density:0.1000000000E-07
 Cut-off criterion for Coulomb multipole terms:    0.1000000000E-07
 Progressive Convergence parameter:                 0.000000000    
 ***************************************************************************************************



                                            ***************************
                                            *  C O M P U T A T I O N  *
                                            ***************************
  

 Number of elements of the density matrix on this node (used, total):     40470     40470



 ===========================================
 Numerical Integration : Fuzzy Cells (Becke)
 ===========================================
  
 Becke grid quality: NORMAL         
  
 Lebedev angular grid order:             min:  11 max:  23
 Nr. of radial points:                   min:  46 max:  67

 Total nr. of points:      91892
 Nr. of blocks:              718
 Block length:               128
 Nr. of dummy points:         12


 Test of Precision of the Numerical Integration Grid
 ===================================================

 Integral of the Total Core Density:                   0.00000000000000



 ========================
 Density Fitting (zlmFit)
 ========================
  
 ZlmFit Fit Quality: NORMAL         
  
 Max L-expansion:                        min:   6 max:   7
 Nr. of radial interpolation points:     min:  39 max:  60



 =====
 S C F  ***  ScaSCF  ***
 =====
  
 Initial density matrix is calculated as sum of fragments

 CYCLE    1
 SCF Error: norm([F,P])=      5.780517738270, max([F,P])=      1.251183530281
 orbitals (Q,E):
 ---------------
 A :19...39          ( 2.00    -0.5938)  ( 2.00    -0.5851)  ( 2.00    -0.5485)  ( 2.00    -0.5250)
                     ( 2.00    -0.5144)  ( 2.00    -0.4280)  ( 2.00    -0.4128)  ( 2.00    -0.3892)
                     ( 2.00    -0.3242)  ( 2.00    -0.3211)  ( 1.00    -0.2927)  ( 0.00    -0.1575)
                     ( 0.00    -0.0672)  ( 0.00    -0.0607)  ( 0.00    -0.0330)  ( 0.00    -0.0217)
                     ( 0.00    -0.0150)  ( 0.00    -0.0037)  ( 0.00     0.0061)  ( 0.00     0.0123)
                     ( 0.00     0.0248)

 CYCLE    2
   MIX coefficients:  0.8000  0.2000
 SCF Error: norm([F,P])=      1.252035806373, max([F,P])=      0.263585762045
 orbitals (Q,E):
 ---------------
 A :19...30          ( 2.00    -0.5265)  ( 2.00    -0.5107)  ( 2.00    -0.4764)  ( 2.00    -0.4468)
                     ( 2.00    -0.4429)  ( 2.00    -0.3778)  ( 2.00    -0.3345)  ( 2.00    -0.3214)
                     ( 2.00    -0.3095)  ( 2.00    -0.3071)  ( 1.00    -0.2538)  ( 0.00    -0.1182)

 CYCLE    3
  SDIIS (wt  0.000): -0.6863  1.6863
 A-DIIS (wt  1.000):  0.0000  1.0000
  DIIS coefficients:  0.0000  1.0000
 SCF Error: norm([F,P])=      0.579465356078, max([F,P])=      0.127228831143
 orbitals (Q,E):
 ---------------
 A :19...30          ( 2.00    -0.3749)  ( 2.00    -0.3447)  ( 2.00    -0.3047)  ( 2.00    -0.2607)
                     ( 2.00    -0.2554)  ( 2.00    -0.2483)  ( 2.00    -0.2011)  ( 2.00    -0.1966)
                     ( 2.00    -0.1725)  ( 2.00    -0.1478)  ( 1.00    -0.1302)  ( 0.00    -0.0174)

 CYCLE    4
  SDIIS (wt  0.000): -0.1033  0.8221  0.2812
 A-DIIS (wt  1.000): -0.0000  0.7814  0.2186
  DIIS coefficients: -0.0000  0.7814  0.2186
 SCF Error: norm([F,P])=      1.175917629500, max([F,P])=      0.328825973594
 orbitals (Q,E):
 ---------------
 A :19...30          ( 2.00    -0.4075)  ( 2.00    -0.3871)  ( 2.00    -0.3519)  ( 2.00    -0.3164)
                     ( 2.00    -0.3042)  ( 2.00    -0.2764)  ( 2.00    -0.2339)  ( 2.00    -0.2138)
                     ( 2.00    -0.2086)  ( 2.00    -0.2028)  ( 1.00    -0.1540)  ( 0.00    -0.0373)

 CYCLE    5
  SDIIS (wt  0.111):  0.0347  0.4147  0.1524  0.3981
 A-DIIS (wt  0.889):  0.0000  0.2784  0.0000  0.7216
  DIIS coefficients:  0.0038  0.2935  0.0169  0.6858
 SCF Error: norm([F,P])=      0.368018955161, max([F,P])=      0.089054201461
 orbitals (Q,E):
 ---------------
 A :19...30          ( 2.00    -0.4423)  ( 2.00    -0.4365)  ( 2.00    -0.3856)  ( 2.00    -0.3533)
                     ( 2.00    -0.3468)  ( 2.00    -0.3155)  ( 2.00    -0.2752)  ( 2.00    -0.2545)
                     ( 2.00    -0.2524)  ( 2.00    -0.2216)  ( 1.00    -0.2062)  ( 0.00    -0.0640)

 CYCLE    6
  SDIIS (wt  0.000): -0.0309  0.2935 -0.0485  0.5785  0.2073
 A-DIIS (wt  1.000):  0.0000  0.2137  0.0000  0.6615  0.1247
  DIIS coefficients:  0.0000  0.2137  0.0000  0.6615  0.1247
 SCF Error: norm([F,P])=      0.708495733528, max([F,P])=      0.170542543122
 orbitals (Q,E):
 ---------------
 A :19...30          ( 2.00    -0.4546)  ( 2.00    -0.4373)  ( 2.00    -0.3929)  ( 2.00    -0.3598)
                     ( 2.00    -0.3530)  ( 2.00    -0.3149)  ( 2.00    -0.2660)  ( 2.00    -0.2532)
                     ( 2.00    -0.2491)  ( 2.00    -0.2417)  ( 1.00    -0.2022)  ( 0.00    -0.0641)

 CYCLE    7
  SDIIS (wt  0.590): -0.0196  0.1142  0.0332  0.2870  0.0110  0.5743
 A-DIIS (wt  0.410):  0.0000  0.0000  0.0000  0.1513  0.0000  0.8487
  DIIS coefficients: -0.0116  0.0674  0.0196  0.2314  0.0065  0.6868
 SCF Error: norm([F,P])=      0.160868595699, max([F,P])=      0.041571172712
 orbitals (Q,E):
 ---------------
 A :19...30          ( 2.00    -0.4405)  ( 2.00    -0.4203)  ( 2.00    -0.3791)  ( 2.00    -0.3452)
                     ( 2.00    -0.3374)  ( 2.00    -0.3043)  ( 2.00    -0.2493)  ( 2.00    -0.2411)
                     ( 2.00    -0.2370)  ( 2.00    -0.2306)  ( 1.00    -0.1878)  ( 0.00    -0.0576)

 CYCLE    8
  SDIIS (wt  0.820): -0.0018  0.0280  0.0038  0.1497  0.0158  0.4070  0.3975
 A-DIIS (wt  0.180):  0.0000  0.0000  0.0000  0.0000  0.0000  0.1780  0.8220
  DIIS coefficients: -0.0014  0.0230  0.0031  0.1228  0.0129  0.3658  0.4738
 SCF Error: norm([F,P])=      0.069619876960, max([F,P])=      0.018810401048
 orbitals (Q,E):
 ---------------
 A :19...30          ( 2.00    -0.4439)  ( 2.00    -0.4243)  ( 2.00    -0.3816)  ( 2.00    -0.3474)
                     ( 2.00    -0.3403)  ( 2.00    -0.3044)  ( 2.00    -0.2539)  ( 2.00    -0.2425)
                     ( 2.00    -0.2386)  ( 2.00    -0.2317)  ( 1.00    -0.1900)  ( 0.00    -0.0562)

 CYCLE    9
  SDIIS (wt  0.938): -0.0008  0.0028  0.0041  0.0276 -0.0020  0.1947  0.3750  0.3986
 A-DIIS (wt  0.062):  0.0000  0.0000  0.0000  0.0000  0.0000  0.0000  0.1917  0.8083
  DIIS coefficients: -0.0008  0.0026  0.0039  0.0259 -0.0019  0.1826  0.3636  0.4241
 SCF Error: norm([F,P])=      0.028461848308, max([F,P])=      0.007149584589
 orbitals (Q,E):
 ---------------
 A :19...30          ( 2.00    -0.4436)  ( 2.00    -0.4240)  ( 2.00    -0.3820)  ( 2.00    -0.3479)
                     ( 2.00    -0.3408)  ( 2.00    -0.3057)  ( 2.00    -0.2528)  ( 2.00    -0.2431)
                     ( 2.00    -0.2395)  ( 2.00    -0.2324)  ( 1.00    -0.1907)  ( 0.00    -0.0577)

 CYCLE   10
  SDIIS (wt  1.000): -0.0007 -0.0000 -0.0005  0.0059  0.0008  0.0533  0.1527  0.2303  0.5583
  DIIS coefficients: -0.0007 -0.0000 -0.0005  0.0059  0.0008  0.0533  0.1527  0.2303  0.5583
 SCF Error: norm([F,P])=      0.004055253474, max([F,P])=      0.000761039118
 orbitals (Q,E):
 ---------------
 A :19...30          ( 2.00    -0.4435)  ( 2.00    -0.4239)  ( 2.00    -0.3818)  ( 2.00    -0.3477)
                     ( 2.00    -0.3405)  ( 2.00    -0.3055)  ( 2.00    -0.2528)  ( 2.00    -0.2430)
                     ( 2.00    -0.2394)  ( 2.00    -0.2323)  ( 1.00    -0.1905)  ( 0.00    -0.0576)

 CYCLE   11
  SDIIS (wt  1.000):  0.0003 -0.0005  0.0003  0.0005 -0.0002  0.0122  0.0413  0.0738  0.2396  0.6327
  DIIS coefficients:  0.0003 -0.0005  0.0003  0.0005 -0.0002  0.0122  0.0413  0.0738  0.2396  0.6327
 SCF Error: norm([F,P])=      0.000633062677, max([F,P])=      0.000131404301
 orbitals (Q,E):
 ---------------
 A :19...30          ( 2.00    -0.4435)  ( 2.00    -0.4239)  ( 2.00    -0.3818)  ( 2.00    -0.3477)
                     ( 2.00    -0.3405)  ( 2.00    -0.3054)  ( 2.00    -0.2528)  ( 2.00    -0.2429)
                     ( 2.00    -0.2393)  ( 2.00    -0.2323)  ( 1.00    -0.1905)  ( 0.00    -0.0575)

 CYCLE   12
  SDIIS (wt  1.000): -0.0001  0.0001 -0.0002 -0.0001  0.0031  0.0116  0.0218  0.0829  0.3177  0.5633
  DIIS coefficients: -0.0001  0.0001 -0.0002 -0.0001  0.0031  0.0116  0.0218  0.0829  0.3177  0.5633
 SCF Error: norm([F,P])=      0.000221788411, max([F,P])=      0.000060276109
 orbitals (Q,E):
 ---------------
 A :19...30          ( 2.00    -0.4435)  ( 2.00    -0.4239)  ( 2.00    -0.3818)  ( 2.00    -0.3477)
                     ( 2.00    -0.3405)  ( 2.00    -0.3055)  ( 2.00    -0.2528)  ( 2.00    -0.2430)
                     ( 2.00    -0.2394)  ( 2.00    -0.2323)  ( 1.00    -0.1905)  ( 0.00    -0.0575)

 CYCLE   13
  SDIIS (wt  1.000):  0.0000 -0.0001  0.0000  0.0004  0.0019  0.0034  0.0194  0.1002  0.3149  0.5598
  DIIS coefficients:  0.0000 -0.0001  0.0000  0.0004  0.0019  0.0034  0.0194  0.1002  0.3149  0.5598
 SCF Error: norm([F,P])=      0.000067729938, max([F,P])=      0.000019236331
 orbitals (Q,E):
 ---------------
 A :19...30          ( 2.00    -0.4435)  ( 2.00    -0.4239)  ( 2.00    -0.3818)  ( 2.00    -0.3477)
                     ( 2.00    -0.3405)  ( 2.00    -0.3055)  ( 2.00    -0.2528)  ( 2.00    -0.2430)
                     ( 2.00    -0.2394)  ( 2.00    -0.2323)  ( 1.00    -0.1905)  ( 0.00    -0.0575)

 CYCLE   14
  SDIIS (wt  1.000): -0.0000  0.0000 -0.0001  0.0000  0.0000  0.0035  0.0255  0.0941  0.2659  0.6111
  DIIS coefficients: -0.0000  0.0000 -0.0001  0.0000  0.0000  0.0035  0.0255  0.0941  0.2659  0.6111
 SCF Error: norm([F,P])=      0.000017952335, max([F,P])=      0.000003987595
 orbitals (Q,E):
 ---------------
 A :19...30          ( 2.00    -0.4435)  ( 2.00    -0.4239)  ( 2.00    -0.3818)  ( 2.00    -0.3477)
                     ( 2.00    -0.3405)  ( 2.00    -0.3055)  ( 2.00    -0.2528)  ( 2.00    -0.2430)
                     ( 2.00    -0.2394)  ( 2.00    -0.2323)  ( 1.00    -0.1905)  ( 0.00    -0.0575)

 CYCLE   15
  SDIIS (wt  1.000):  0.0000  0.0000  0.0001  0.0000  0.0001  0.0014  0.0037  0.0369  0.2940  0.6638
  DIIS coefficients:  0.0000  0.0000  0.0001  0.0000  0.0001  0.0014  0.0037  0.0369  0.2940  0.6638
 SCF Error: norm([F,P])=      0.000007987570, max([F,P])=      0.000001296561
 orbitals (Q,E):
 ---------------
 A :19...30          ( 2.00    -0.4435)  ( 2.00    -0.4239)  ( 2.00    -0.3818)  ( 2.00    -0.3477)
                     ( 2.00    -0.3405)  ( 2.00    -0.3055)  ( 2.00    -0.2528)  ( 2.00    -0.2430)
                     ( 2.00    -0.2394)  ( 2.00    -0.2323)  ( 1.00    -0.1905)  ( 0.00    -0.0575)

 CYCLE   16
  SDIIS (wt  1.000): -0.0000 -0.0002 -0.0004 -0.0021 -0.0107 -0.0334 -0.0563 -0.0035  0.2649  0.8417
  DIIS coefficients: -0.0000 -0.0002 -0.0004 -0.0021 -0.0107 -0.0334 -0.0563 -0.0035  0.2649  0.8417
 SCF Error: norm([F,P])=      0.000003649336, max([F,P])=      0.000000948426
 orbitals (Q,E):
 ---------------
 A :19...30          ( 2.00    -0.4435)  ( 2.00    -0.4239)  ( 2.00    -0.3818)  ( 2.00    -0.3477)
                     ( 2.00    -0.3405)  ( 2.00    -0.3055)  ( 2.00    -0.2528)  ( 2.00    -0.2430)
                     ( 2.00    -0.2394)  ( 2.00    -0.2323)  ( 1.00    -0.1905)  ( 0.00    -0.0575)

 SCF CONVERGED

 CYCLE   17
 ***************************************************************************************************



                                                *******************
                                                *  R E S U L T S  *
                                                *******************
  
 *** Using FIT density in Focky
  SDIIS (wt  1.000):  0.0000  0.0000  0.0000 -0.0004 -0.0023 -0.0040 -0.0083  0.0378  0.3118  0.6654
  DIIS coefficients:  0.0000  0.0000  0.0000 -0.0004 -0.0023 -0.0040 -0.0083  0.0378  0.3118  0.6654
 SCF Error: norm([F,P])=      0.000001438163, max([F,P])=      0.000000327339

 Scaled ZORA Orbital Energies, per Irrep and Spin:
 =================================================
                        Occup              E (au)              E (eV)       Diff (eV) with prev. cycle
                        -----      --------------------        ------       --------------------------
 A
              19        2.000     -0.44350439314954E+00       -12.068               7.10E-07
              20        2.000     -0.42391729215208E+00       -11.535               5.55E-07
              21        2.000     -0.38179451590029E+00       -10.389              -3.72E-07
              22        2.000     -0.34773520119275E+00        -9.462              -1.23E-06
              23        2.000     -0.34050404779553E+00        -9.266              -7.78E-07
              24        2.000     -0.30545607996211E+00        -8.312               7.33E-07
              25        2.000     -0.25276321978170E+00        -6.878               6.41E-07
              26        2.000     -0.24295054633923E+00        -6.611               6.15E-07
              27        2.000     -0.23936729860692E+00        -6.514               1.64E-06
              28        2.000     -0.23226035969081E+00        -6.320              -1.24E-06
              29        1.000     -0.19047060514582E+00        -5.183               2.13E-06
              30        0.000     -0.57538127401025E-01        -1.566
              31        0.000     -0.20556906494462E-01        -0.559
              32        0.000     -0.98880579365070E-02        -0.269
              33        0.000      0.22191240750854E-01         0.604
              34        0.000      0.34039008807153E-01         0.926
              35        0.000      0.45402754411154E-01         1.235
              36        0.000      0.58467389866015E-01         1.591
              37        0.000      0.71814131966296E-01         1.954
              38        0.000      0.86936099682138E-01         2.366
              39        0.000      0.11711481032229E+00         3.187


 Partially Occupied:
              29 A                -0.19047060514582E+00
  
 HOMO :       28 A                -0.23226035969081E+00
 LUMO :       30 A                -0.57538127401025E-01
  


 All Electron Calculation, thus no Orbital Energies of the Core Orbitals are calculated

 Integrated fractional orbital density (NFOD):         1.000


 Fit test: (difference of exact and fit density, squared integrated, result summed over spins)
         Sum-of-Fragments:                             0.00000000081929
         Orthogonalized Fragments:                     0.00008958090214
         SCF:                                          0.00019100037220



 ==========================
 Electron Density at Nuclei
 ==========================
  
 The electron density is calculated at points on a small sphere around the center of a nucleus.
 The printed electron density is the average electron density on these points.
 The radius of the sphere is the printed approximate finite nuclear radius.
 Note: ZORA-4 density is used, which includes small component density

         Atom        Nuclear Radius (Angstrom)             Electron Density (a.u.)
         ----        -------------------------             -----------------------
     1)   C                 0.0000320678                              127.20840
     2)   C                 0.0000320678                              127.17450
     3)   Cl                0.0000426624                             3312.47794
     4)   H                 0.0000181514                                0.49946
     5)   C                 0.0000320678                              127.02073
     6)   H                 0.0000181514                                0.51024
     7)   H                 0.0000181514                                0.50810
     8)   H                 0.0000181514                                0.50948
     9)   N                 0.0000333706                              206.13276
    10)   H                 0.0000181514                                0.50538
    11)   H                 0.0000181514                                0.49868
    12)   N                 0.0000333706                              205.96777
    13)   H                 0.0000181514                                0.50752
    14)   H                 0.0000181514                                0.48884



 =======================================
 M U L L I K E N   P O P U L A T I O N S
 =======================================
  
 The survey below gives for each atom:
 a) the total charge (Z minus electrons)
 b) the net spin polarization (nr of electrons spin-A minus spin-B)
 c) for each spin the atomic electron valence density (integrated) per L-value.

 Atom              Charge    Spin density          S         P         D         F
 ----              ------    ------------       ------    ------    ------    ------
 1 C               0.2277                       3.1768    2.4745    0.1142    0.0068
 2 C               0.2833                       3.1279    2.5115    0.0722    0.0050
 3 Cl             -0.3050                       5.9808   11.2935    0.0243    0.0064
 4 H              -0.1702                       1.0860    0.0784    0.0058    0.0000
 5 C               0.7249                       2.8031    2.4289    0.0408    0.0023
 6 H              -0.1835                       1.0904    0.0868    0.0063    0.0000
 7 H              -0.2286                       1.1364    0.0860    0.0062    0.0000
 8 H              -0.1898                       1.1013    0.0823    0.0062    0.0000
 9 N              -0.0105                       3.3891    3.5713    0.0471    0.0029
 10 H             -0.0409                       0.9136    0.1177    0.0096    0.0000
 11 H             -0.0520                       0.9227    0.1197    0.0096    0.0000
 12 N              0.0049                       3.3575    3.5908    0.0437    0.0031
 13 H             -0.0399                       0.9141    0.1165    0.0093    0.0000
 14 H             -0.0204                       0.8893    0.1213    0.0098    0.0000

 Populations of individual BAS functions
 ----------------------------------------
 1 C            0.5058  1.4835  0.3442  0.8778 -0.0346  0.0607 -0.1513 -0.1142  0.5949  0.7881
                0.7951  0.1255  0.1810  0.1948  0.0009  0.0182  0.0190  0.0215  0.0282  0.0264
               -0.0030 -0.0017 -0.0027  0.0020  0.0007  0.0027  0.0025  0.0009  0.0020  0.0035
 2 C            0.5050  1.4832  0.3048  0.8665 -0.0316  0.1503 -0.1453 -0.1174  0.6082  0.7248
                0.7603  0.1547  0.1793  0.1966 -0.0084  0.0112  0.0097  0.0189  0.0184  0.0225
               -0.0040 -0.0015 -0.0033  0.0019  0.0006  0.0033  0.0018 -0.0004  0.0014  0.0051
 5 C            0.5075  1.4814 -0.0658  0.9221 -0.0420 -0.1816 -0.1451 -0.1769  0.7868  0.7649
                0.7964  0.1944  0.1915  0.1986  0.0052  0.0069  0.0041  0.0090  0.0088  0.0068
               -0.0000 -0.0009 -0.0012  0.0013  0.0003 -0.0007  0.0017  0.0012 -0.0002  0.0007
 3 Cl           0.5879  1.3675  1.7513  0.2148  0.7358  0.7421  0.7401  1.2596  1.2517  1.2542
                0.6304  1.0309  0.3980  0.2363  0.3118  0.2883  0.9325  1.1185  1.0573  0.3357
                0.5389  0.4906  0.0198  0.0042  0.0081 -0.0068  0.0007 -0.0018  0.0146  0.0082
                0.0082 -0.0076  0.0005 -0.0045 -0.0074 -0.0034  0.0006 -0.0026
 4 H            0.1398  0.6305  0.3156  0.0255  0.0326  0.0203 -0.0042  0.0015  0.0005  0.0090
                0.0015 -0.0024
 6 H            0.1271  0.6456  0.3178  0.0285  0.0286  0.0297 -0.0017  0.0015  0.0006  0.0087
[...]
                                   -2.97%     3 S              10.158  0.00     3 C
                                   -2.64%     2 P:x             7.649  0.00    14 N
                                    2.42%     2 P:y             4.589  0.00     3 C
                                   -2.32%     3 S              10.158  0.00     2 C
                                    2.31%     1 P:y            -5.239  0.67     3 C
                                   -1.93%     2 P:x             7.649  0.00    13 N
                                   -1.75%     2 P:x             4.589  0.00     3 C
                                    1.68%     2 S             -13.620  2.00     2 C
                                    1.64%     2 S             -13.620  2.00     3 C
                                    1.41%     1 P:y            -5.239  0.67     2 C
                                    1.30%     3 S              40.869  0.00     5 H
                                    1.20%     3 S              40.869  0.00    10 H
                                    1.18%     1 P:x            -5.239  0.67     2 C
                                   -1.06%     2 P:z             4.589  0.00     3 C
                                   -1.03%     3 S              14.073  0.00    13 N
       1.591  0.00    36 A         23.53%     1 S              -6.532  1.00     9 H
                                   16.39%     1 S              -6.532  1.00     6 H
                                   14.65%     2 S               2.394  0.00     6 H
                                   10.64%     1 S              -6.532  1.00     5 H
                                    9.26%     1 S              -6.532  1.00    12 H
                                   -8.12%     2 P:x             4.589  0.00     3 C
                                    7.36%     1 S              -6.532  1.00    10 H
                                    6.67%     1 S              -6.532  1.00    11 H
                                    6.52%     2 S               2.394  0.00     9 H
                                   -5.52%     2 P:x             7.649  0.00    13 N
                                    4.42%     1 P:x            -7.062  1.00    13 N
                                    3.74%     1 P:x            -5.239  0.67     3 C
                                   -3.22%     2 P:x             7.649  0.00    14 N
                                   -2.80%     2 P:y             4.589  0.00     2 C
                                    2.44%     2 S               2.394  0.00     5 H
                                    2.41%     1 S              -6.532  1.00     7 H
                                   -2.17%     2 P:y             4.589  0.00     3 C
                                    2.15%     1 P:x            -7.062  1.00    14 N
                                   -2.14%     2 P:y             7.649  0.00    13 N
                                    1.83%     2 S             -13.620  2.00     1 C
                                   -1.50%     3 S              10.158  0.00     2 C
                                    1.49%     3 S              40.869  0.00     9 H
                                    1.31%     2 S               2.394  0.00    11 H
                                   -1.28%     2 P:z             4.589  0.00     2 C
                                    1.26%     1 P:z            -5.239  0.67     2 C
                                   -1.17%     2 S               2.394  0.00     7 H
                                   -1.08%     3 S              10.158  0.00     1 C
       1.954  0.00    37 A         47.41%     1 S              -6.532  1.00     8 H
                                   33.16%     2 S               2.394  0.00     8 H
                                  -31.12%     2 P:z             4.589  0.00     3 C
                                   21.97%     1 S              -6.532  1.00     7 H
                                  -10.22%     2 P:x             4.589  0.00     3 C
                                    7.58%     2 S               2.394  0.00     7 H
                                    6.92%     1 P:z            -5.239  0.67     3 C
                                    5.16%     1 S              -6.532  1.00    10 H
                                    3.53%     1 S              -6.532  1.00     6 H
                                    2.96%     2 S               2.394  0.00    10 H
                                    2.72%     1 P:x            -5.239  0.67     3 C
                                    2.71%     3 S              40.869  0.00     7 H
                                   -2.57%     2 P:y             4.589  0.00     3 C
                                    2.33%     3 S              40.869  0.00     8 H
                                    1.96%     1 S              -6.532  1.00     9 H
                                   -1.92%     2 S               2.394  0.00     9 H
                                   -1.65%     2 P:z             4.589  0.00     1 C
                                    1.60%     1 P:z            -5.239  0.67     2 C
                                    1.46%     2 S               2.394  0.00     6 H
                                   -1.07%     2 P:x             7.649  0.00    13 N
       2.366  0.00    38 A         33.97%     1 S              -6.532  1.00     6 H
                                   19.55%     2 S               2.394  0.00     6 H
                                   15.13%     1 S              -6.532  1.00     9 H
                                  -14.60%     2 P:x             4.589  0.00     3 C
                                   13.70%     1 S              -6.532  1.00     7 H
                                    7.10%     1 S              -6.532  1.00    10 H
                                    7.02%     1 S              -6.532  1.00     5 H
                                    6.60%     1 P:x            -5.239  0.67     3 C
                                    5.99%     2 S               2.394  0.00     5 H
                                   -4.60%     2 P:x             7.649  0.00    13 N
                                    4.21%     2 S               2.394  0.00     9 H
                                   -4.09%     2 P:y             4.589  0.00     3 C
                                   -3.78%     2 P:z             4.589  0.00     3 C
                                    2.92%     1 P:y            -7.062  1.00    13 N
                                   -2.75%     2 P:y             7.649  0.00    13 N
                                    2.56%     1 S              -6.532  1.00     8 H
                                    2.48%     3 S              40.869  0.00     6 H
                                   -2.47%     2 S               2.394  0.00    10 H
                                    2.45%     1 P:z            -5.239  0.67     3 C
                                    1.77%     2 S             -13.620  2.00     1 C
                                    1.59%     1 S              -6.532  1.00    11 H
                                    1.55%     3 S              40.869  0.00     7 H
                                    1.43%     2 P:z             4.589  0.00     2 C
                                   -1.42%     2 S               2.394  0.00    12 H
                                   -1.42%     3 S              10.158  0.00     1 C
                                    1.38%     3 S              40.869  0.00    10 H
                                   -1.27%     3 S              10.158  0.00     2 C
                                    1.18%     2 S             -13.620  2.00     2 C
                                    1.12%     1 P:x            -7.062  1.00    13 N
                                   -1.04%     2 S               2.394  0.00    11 H
                                    1.04%     1 S              -6.532  1.00    12 H
                                   -1.02%     2 S               2.394  0.00     7 H
       3.187  0.00    39 A         33.76%     1 P:y            -5.239  0.67     3 C
                                  -14.19%     3 S              10.158  0.00     1 C
                                   11.86%     2 P:x             4.589  0.00     3 C
                                   10.86%     1 P:y            -5.239  0.67     1 C
                                    9.85%     1 S              -6.532  1.00     6 H
                                    9.71%     2 P:y             4.589  0.00     3 C
                                   -9.61%     2 P:y             4.589  0.00     1 C
                                    7.72%     1 P:z            -5.239  0.67     3 C
                                    6.78%     1 P:x            -5.239  0.67     3 C
                                    6.36%     1 P:x            -5.239  0.67     1 C
                                    6.15%     2 P:z             4.589  0.00     3 C
                                    4.65%     2 S             -13.620  2.00     1 C
                                   -3.39%     3 S              10.158  0.00     2 C
                                    3.32%     1 P:z            -5.239  0.67     1 C
                                   -3.22%     2 P:z             4.589  0.00     1 C
                                    2.94%     1 P:y            -7.062  1.00    14 N
                                    2.66%     2 S               2.394  0.00    10 H
                                    2.22%     1 P:x            -5.239  0.67     2 C
                                    2.08%     2 P:y             7.649  0.00    13 N
                                    1.76%     2 P:y             4.589  0.00     2 C
                                    1.68%     2 P:x             4.589  0.00     2 C
                                    1.54%     2 S               2.394  0.00     6 H
                                    1.53%     1 S              -6.532  1.00     8 H
                                   -1.51%     2 P:x             7.649  0.00    13 N
                                    1.49%     1 S              -6.532  1.00     7 H
                                    1.41%     1 P:z            -5.239  0.67     2 C
                                   -1.32%     4 S               5.292  0.00     4 Cl
                                   -1.30%     2 S               2.394  0.00    12 H
                                    1.08%     2 S             -13.620  2.00     3 C
                                    1.05%     2 S               2.394  0.00     5 H



 =======================================================================
 Electrostatic potential at the Nuclei due to electrons and other nuclei
 =======================================================================
  
         Atom                  Potential
         ----                  ---------
     1)   C                  14.70140168
     2)   C                  14.73093031
     3)   Cl                 64.90736615
     4)   H                   1.07494875
     5)   C                  14.79261496
     6)   H                   1.11586241
     7)   H                   1.10588826
     8)   H                   1.11770666
     9)   N                  18.41288394
    10)   H                   1.04076215
    11)   H                   1.03171018
    12)   N                  18.39460830
    13)   H                   1.03210858
    14)   H                   1.01572341
 Mulliken charges used for AMS results%charges...


    =====================
     CALCULATION RESULTS
    =====================

Energy (hartree)            -2.57605496


--------------
Atomic charges
--------------
  Index   Atom    Charge
      1      C    0.2277
      2      C    0.2833
      3     Cl   -0.3050
      4      H   -0.1702
      5      C    0.7249
      6      H   -0.1835
      7      H   -0.2286
      8      H   -0.1898
      9      N   -0.0105
     10      H   -0.0409
     11      H   -0.0520
     12      N    0.0049
     13      H   -0.0399
     14      H   -0.0204


Dipole moment vector    (Debye):    -2.16699493    0.15313496    3.42818162
              magnitude (Debye):     4.05853995


-----------------------
Molecular orbitals info
-----------------------
n orbitals:              252
n spin:                    1

Note: only printing virtual orbitals with
      energy smaller than HOMO + 100. eV

Note: fractional orbital occupations. HOMO and LUMO labels are not well defined!

HOMO (eV):              -6.3201
LUMO (eV):              -5.1830
HOMO-LUMO gap (eV):      1.1372

   Index   Energy (eV)    Occupation
     167       92.9075         0.000       
     166       92.4676         0.000       
     165       89.1893         0.000       
     164       88.4436         0.000       
     163       86.7308         0.000       
     162       85.1667         0.000       
     161       84.1820         0.000       
     160       83.8229         0.000       
     159       83.0118         0.000       
     158       82.3707         0.000       
     157       81.8462         0.000       
     156       81.1998         0.000       
     155       80.7800         0.000       
     154       80.3079         0.000       
     153       79.7085         0.000       
     152       78.4001         0.000       
     151       77.9733         0.000       
     150       77.0259         0.000       
     149       76.4208         0.000       
     148       75.6979         0.000       
     147       74.9376         0.000       
     146       73.3014         0.000       
     145       73.0013         0.000       
     144       71.3056         0.000       
     143       70.4003         0.000       
     142       69.5605         0.000       
     141       69.1224         0.000       
     140       67.2563         0.000       
     139       66.9356         0.000       
     138       65.9041         0.000       
     137       64.3444         0.000       
     136       63.8129         0.000       
     135       63.4405         0.000       
     134       63.1810         0.000       
     133       61.9148         0.000       
     132       61.5800         0.000       
     131       59.9451         0.000       
     130       59.0663         0.000       
     129       58.7126         0.000       
     128       56.9793         0.000       
     127       56.0390         0.000       
     126       55.4695         0.000       
     125       53.9545         0.000       
     124       53.3174         0.000       
     123       52.2220         0.000       
     122       51.7350         0.000       
     121       51.2007         0.000       
     120       50.7480         0.000       
     119       49.6759         0.000       
     118       49.2512         0.000       
     117       47.2398         0.000       
     116       46.6798         0.000       
     115       45.3445         0.000       
     114       44.9618         0.000       
     113       43.4096         0.000       
     112       41.9635         0.000       
     111       41.4355         0.000       
     110       40.2788         0.000       
     109       39.4655         0.000       
     108       38.4745         0.000       
     107       38.1595         0.000       
     106       37.5190         0.000       
     105       37.1826         0.000       
     104       36.8675         0.000       
     103       36.1838         0.000       
     102       35.7637         0.000       
     101       35.4968         0.000       
     100       35.4622         0.000       
      99       34.7480         0.000       
      98       34.6596         0.000       
      97       34.1469         0.000       
      96       33.5169         0.000       
      95       33.3266         0.000       
      94       32.8391         0.000       
      93       32.2903         0.000       
      92       32.1549         0.000       
      91       30.7459         0.000       
      90       29.8519         0.000       
      89       29.2805         0.000       
      88       28.9800         0.000       
      87       28.4561         0.000       
      86       28.1286         0.000       
      85       27.7716         0.000       
      84       26.9306         0.000       
      83       26.0626         0.000       
      82       25.2677         0.000       
      81       25.1481         0.000       
      80       23.9292         0.000       
      79       22.8442         0.000       
      78       21.7883         0.000       
      77       19.8527         0.000       
      76       19.1420         0.000       
      75       18.1314         0.000       
      74       16.9206         0.000       
      73       16.3311         0.000       
      72       15.8266         0.000       
      71       15.3623         0.000       
      70       14.5023         0.000       
      69       14.0455         0.000       
      68       13.7102         0.000       
      67       13.4050         0.000       
      66       12.9784         0.000       
      65       12.3836         0.000       
      64       12.2284         0.000       
      63       11.9429         0.000       
      62       11.5887         0.000       
      61       11.2657         0.000       
      60       10.8426         0.000       
      59       10.2057         0.000       
      58       10.0941         0.000       
      57        9.5935         0.000       
      56        9.4612         0.000       
      55        8.9900         0.000       
      54        8.8182         0.000       
      53        8.1351         0.000       
      52        7.9985         0.000       
      51        7.9432         0.000       
      50        7.1118         0.000       
      49        7.0792         0.000       
      48        6.5664         0.000       
      47        6.0441         0.000       
      46        5.9705         0.000       
      45        5.6747         0.000       
      44        5.0504         0.000       
      43        4.7545         0.000       
      42        4.4283         0.000       
      41        4.2874         0.000       
      40        4.0283         0.000       
      39        3.1869         0.000       
      38        2.3657         0.000       
      37        1.9542         0.000       
      36        1.5910         0.000       
      35        1.2355         0.000       
      34        0.9262         0.000       
      33        0.6039         0.000       
      32       -0.2691         0.000       
      31       -0.5594         0.000       
      30       -1.5657         0.000       
      29       -5.1830         1.000 < LUMO
      28       -6.3201         2.000 < HOMO
      27       -6.5135         2.000       
      26       -6.6110         2.000       
      25       -6.8780         2.000       
      24       -8.3119         2.000       
      23       -9.2656         2.000       
      22       -9.4624         2.000       
      21      -10.3892         2.000       
      20      -11.5354         2.000       
      19      -12.0684         2.000       
      18      -12.6151         2.000       
      17      -12.8068         2.000       
      16      -13.7515         2.000       
      15      -16.9595         2.000       
      14      -18.3342         2.000       
      13      -19.3006         2.000       
      12      -22.5103         2.000       
      11      -23.3503         2.000       
      10     -189.0597         2.000       
       9     -189.0732         2.000       
       8     -189.2987         2.000       
       7     -250.0881         2.000       
       6     -269.8483         2.000       
       5     -271.6220         2.000       
       4     -272.3991         2.000       
       3     -381.7415         2.000       
       2     -382.1381         2.000       
       1    -2749.3649         2.000       

AMS application finished. Exiting.
NORMAL TERMINATION
     Total cpu time:      47.15
  Total system time:       0.36
 Total elapsed time:      47.67
NORMAL TERMINATION with warnings
