
 *******************************************************************************
 *                                                                             *
 *  --------------------------------                                           *
 *   Amsterdam Modeling Suite (AMS)              2026.103                      *
 *  --------------------------------                                           *
 *                                               r260501 2026-05-01 873454b5   *
 *                                                                             *
 *                                                                             *
 *                              =================                              *
 *                              |               |                              *
 *                              |     A M S     |                              *
 *                              |               |                              *
 *                              =================                              *
 *                                                                             *
 *                                                                             *
 *   Online information and documentation:  https://www.scm.com/support/       *
 *   E-mail:  support@scm.com   info@scm.com                                   *
 *                                                                             *
 *   Scientific publications using AMS results must be properly referenced     *
 *   See the User Manuals (or the web site) for recommended citations          *
 *   The terms and conditions of the End User License Agreement apply to       *
 *   the use of AMS, https://www.scm.com/license-terms/                        *
 *                                                                             *
 **********************  x86_64_linux_intel / intelmpi  ************************
 
 Licensed to: Jong-June Jeon / University of Seoul 2026-05-13 16:10:32
 SCM User ID: u30731
  
 AMS 2026.103  RunTime: May23-2026 11:42:49  ShM Nodes: 1  Procs: 1

 AMS jobname: optA
 AMS jobid  : 2136886318

 Start   directory: /gpfs/tmp_cpu2/yeseo1ee_plams/ome_batch/plams_ome/optA/
 Results directory: /gpfs/tmp_cpu2/yeseo1ee_plams/ome_batch/plams_ome/optA/
 Scratch directory: /tmp/amstmp_optA_kid0.2136886318/

 RNG seed: 5462362 -13184679 1487688313 1624253562 -695376611 981635536 -2083858935 -1609956328



                      ************************************************************************
                      *  ADF 2026.103  RunTime: May23-2026 11:42:49  ShM Nodes: 1  Procs: 1  *
                      ************************************************************************
  

       ***************************
       *  GEOMETRY OPTIMIZATION  *
       ***************************

Optimization Method                    Quasi Newton
Optimization Coordinates               Delocalized Coordinates
Optimize lattice                       F
 
 ------------------------------------------------------
 Convergence criteria (Hartree,Angstrom)
 ------------------------------------------------------
 Maximum gradient               0.001000000000
 Maximum rms gradient           0.000666666667
 Maximum step allowed           0.010000000000
 Maximum rms step allowed       0.006666666667
 Maximum energy change allowe   0.000100000000
 Maximum stress energy allowe   0.000500000000
 
Initial model Hessian                  Automatic Hessian
 
------------------------------------
Quasi-Newton Optimizer Parameters
------------------------------------
Hessian Update Method                  BFGS
Maximum number of steps                  250
First GDIIS cycle                          0
Maximum GDIIS vectors                      0
Trust radius (bohr)                        0.200000
Trust radius varies                        T
Constraints converged at all steps         T
Use projector                              T
 
 Rigid motions settings for: old optimizer
 Atomic rotations (x,y,z):     T T T
 Atomic translations (x,y,z):  T T T
 Tolerance:                  1.000000000000000E-006

--------
Geometry
--------
Formula: C3H5O2
Atoms
  Index Symbol   x (angstrom)   y (angstrom)   z (angstrom)
      1      C    -0.40717147     0.19924533    -1.32933650
      2      C    -0.54903231    -0.81539011    -0.40948285
      3      O    -1.40266195    -0.73110720     0.63147106
      4      C    -2.37207397     0.28911274     0.64023081
      5      O     0.28787749    -1.75721952    -0.31008610
      6      H    -1.13883351     0.98480579    -1.43704252
      7      H     0.18956454    -0.03113918    -2.19683262
      8      H    -2.98763243     0.11992605     1.51818219
      9      H    -2.99759114     0.24527493    -0.25149464
     10      H    -1.90815637     1.27350502     0.71116841

Total System Charge              0.00000


----------------
ADF Engine Input
----------------
 
   basis
     core None
     type TZ2P
   End
   numericalquality Good
   relativity
     level Scalar
   End
   scf
     mixing 0.05
   End
   spinpolarization 1
   symmetry NOSYM
   unrestricted yes
   xc
     dispersion Grimme3 BJDAMP
     gga BLYP
   End
 

 Title: *** (NO TITLE) ***

 Using automatic Hessian for delocalized coordinates.
 *** GO1_GOStep1 ***

 Energy gradients wrt nuclear displacements
 ==========================================

     Atom      Cartesian (a.u./angstrom)
                 X         Y         Z
 ----------------------------------------
     1 C     0.025506 -0.028414  0.076978
     2 C    -0.076790  0.074326 -0.080685
     3 O     0.014101  0.021845 -0.016177
     4 C     0.023847 -0.021505 -0.003616
     5 O     0.019540 -0.013155  0.026583
     6 H    -0.002090 -0.016056 -0.004423
     7 H    -0.016273 -0.005327  0.002672
     8 H     0.005785  0.000343 -0.006756
     9 H     0.008625 -0.001582  0.007172
    10 H    -0.002250 -0.010474 -0.001750
 ----------------------------------------
 
----------------------------------------------------------------------
Geometry Convergence after Step   1       (Hartree/Angstrom,Angstrom)
----------------------------------------------------------------------
current energy                               -2.00512970 Hartree
energy change                      -2.00512970     0.00010000    F
constrained gradient max            0.08069478     0.00100000    F
constrained gradient rms            0.03133984     0.00066667    F
gradient max                        0.08069478
gradient rms                        0.03133984
cart. step max                      0.04479361     0.01000000    F
cart. step rms                      0.02578479     0.00666667    F
 

--------
Geometry
--------
Formula: C3H5O2
Atoms
  Index Symbol   x (angstrom)   y (angstrom)   z (angstrom)
      1      C    -0.39329103     0.18617086    -1.37310908
      2      C    -0.51319081    -0.82230948    -0.39012781
      3      O    -1.40103573    -0.72534804     0.64817313
      4      C    -2.39980649     0.29637596     0.66408552
      5      O     0.29805689    -1.77666132    -0.33475627
      6      H    -1.09878540     1.00182572    -1.47690592
      7      H     0.22385820    -0.04241674    -2.23248559
      8      H    -3.01639043     0.11004450     1.54287154
      9      H    -3.03217634     0.25636305    -0.22908557
     10      H    -1.95294998     1.29296932     0.74811730

Total System Charge              0.00000

 *** GO1_GOStep2 ***

 Energy gradients wrt nuclear displacements
 ==========================================

     Atom      Cartesian (a.u./angstrom)
                 X         Y         Z
 ----------------------------------------
     1 C     0.025565 -0.008893  0.038055
     2 C    -0.050315  0.040461 -0.039618
     3 O     0.002772  0.012228 -0.002412
     4 C     0.009845 -0.014230  0.002960
     5 O     0.023911 -0.018195  0.009731
     6 H    -0.002173 -0.008454 -0.005539
     7 H    -0.010383 -0.002476 -0.002880
     8 H     0.000726  0.002084 -0.003067
     9 H     0.002094  0.000783  0.003256
    10 H    -0.002042 -0.003308 -0.000485
 ----------------------------------------

 dE(predicted):    -0.72020E-02, dE(actual):    -0.71640E-02, Trust radius:    0.400000, all in a.u.
 
----------------------------------------------------------------------
Geometry Convergence after Step   2       (Hartree/Angstrom,Angstrom)
----------------------------------------------------------------------
current energy                               -2.01229368 Hartree
energy change                      -0.00716397     0.00010000    F
constrained gradient max            0.05032080     0.00100000    F
constrained gradient rms            0.01794632     0.00066667    F
gradient max                        0.05032080
gradient rms                        0.01794632
cart. step max                      0.08789734     0.01000000    F
cart. step rms                      0.03484814     0.00666667    F
 

--------
Geometry
--------
Formula: C3H5O2
Atoms
  Index Symbol   x (angstrom)   y (angstrom)   z (angstrom)
      1      C    -0.48118837     0.15167917    -1.38928312
      2      C    -0.47703446    -0.83570603    -0.34396092
      3      O    -1.39339003    -0.75005954     0.67718994
      4      C    -2.37663246     0.30450072     0.64171821
      5      O     0.29939176    -1.79080039    -0.34193978
      6      H    -1.16355472     0.99695423    -1.42701773
      7      H     0.21552100     0.01180854    -2.20889130
      8      H    -3.02770122     0.12989574     1.50097824
      9      H    -2.97347969     0.26551968    -0.27925744
     10      H    -1.90764293     1.29322173     0.73724114

Total System Charge              0.00000

 *** GO1_GOStep3 ***

 Energy gradients wrt nuclear displacements
 ==========================================

     Atom      Cartesian (a.u./angstrom)
                 X         Y         Z
 ----------------------------------------
     1 C     0.001456 -0.010535  0.011987
     2 C     0.000767  0.011679  0.002204
     3 O     0.001764 -0.001094 -0.003666
     4 C     0.007082 -0.005664 -0.004237
     5 O    -0.005753  0.000896 -0.001446
     6 H    -0.003633  0.002035 -0.000410
     7 H    -0.001555  0.000554 -0.002203
     8 H    -0.000301  0.000029 -0.000115
     9 H    -0.000069  0.001007 -0.001520
    10 H     0.000240  0.001092 -0.000594
 ----------------------------------------

 dE(predicted):    -0.38751E-02, dE(actual):    -0.33473E-02, Trust radius:    0.800000, all in a.u.
 
----------------------------------------------------------------------
Geometry Convergence after Step   3       (Hartree/Angstrom,Angstrom)
----------------------------------------------------------------------
current energy                               -2.01564098 Hartree
energy change                      -0.00334730     0.00010000    F
constrained gradient max            0.01198074     0.00100000    F
constrained gradient rms            0.00440712     0.00066667    F
gradient max                        0.01198074
gradient rms                        0.00440712
cart. step max                      0.09503154     0.01000000    F
cart. step rms                      0.03581878     0.00666667    F
 

--------
Geometry
--------
Formula: C3H5O2
Atoms
  Index Symbol   x (angstrom)   y (angstrom)   z (angstrom)
      1      C    -0.48227007     0.12801635    -1.44245398
      2      C    -0.50777825    -0.87816827    -0.38712158
      3      O    -1.41510158    -0.75659429     0.65431441
      4      C    -2.40146936     0.31171590     0.66312398
      5      O     0.32235508    -1.77515296    -0.32998671
      6      H    -1.13476089     0.99666680    -1.47731595
      7      H     0.31055254     0.04299015    -2.17984169
      8      H    -3.00455620     0.14058371     1.55924500
      9      H    -3.04940851     0.26713344    -0.22392623
     10      H    -1.92327389     1.29982302     0.73073999

Total System Charge              0.00000

 *** GO1_GOStep4 ***

 Energy gradients wrt nuclear displacements
 ==========================================

     Atom      Cartesian (a.u./angstrom)
                 X         Y         Z
 ----------------------------------------
     1 C     0.001872  0.001292 -0.004052
     2 C    -0.001898 -0.029308 -0.003585
     3 O     0.003727  0.001578  0.004913
     4 C    -0.000881  0.001325  0.002360
     5 O    -0.001954  0.014510  0.000911
     6 H     0.000193  0.003548 -0.000473
     7 H     0.002964  0.002938 -0.000332
     8 H    -0.001675  0.000251  0.001686
     9 H    -0.002260  0.000368 -0.001878
    10 H    -0.000087  0.003500  0.000450
 ----------------------------------------

 dE(predicted):    -0.89545E-03, dE(actual):     0.27615E-03, Trust radius:    0.063399, all in a.u.
 
----------------------------------------------------------------------
Geometry Convergence after Step   4       (Hartree/Angstrom,Angstrom)
----------------------------------------------------------------------
current energy                               -2.01536483 Hartree
energy change                       0.00027615     0.00010000    F
constrained gradient max            0.02931451     0.00100000    F
constrained gradient rms            0.00637216     0.00066667    F
gradient max                        0.02931451
gradient rms                        0.00637216
cart. step max                      0.01730061     0.01000000    F
cart. step rms                      0.00730456     0.00666667    F
 

--------
Geometry
--------
Formula: C3H5O2
Atoms
  Index Symbol   x (angstrom)   y (angstrom)   z (angstrom)
      1      C    -0.48396017     0.13297600    -1.43372477
      2      C    -0.50148743    -0.86213169    -0.37846662
      3      O    -1.41245846    -0.75303402     0.65565377
      4      C    -2.39696143     0.30992597     0.65906806
      5      O     0.31621523    -1.77980659    -0.32948261
      6      H    -1.14010044     0.99665422    -1.47043426
      7      H     0.29325193     0.03435872    -2.18396255
      8      H    -3.00736708     0.13543513     1.54792423
      9      H    -3.03427621     0.26719903    -0.23366954
     10      H    -1.91856705     1.29543707     0.73387153

Total System Charge              0.00000

 *** GO1_GOStep5 ***

 Energy gradients wrt nuclear displacements
 ==========================================

     Atom      Cartesian (a.u./angstrom)
                 X         Y         Z
 ----------------------------------------
     1 C    -0.000434 -0.000550 -0.001526
     2 C    -0.005978 -0.008790 -0.004508
     3 O     0.001753  0.002360  0.002600
     4 C     0.000315 -0.000227  0.000800
     5 O     0.002983  0.002392  0.002105
     6 H     0.000783  0.001686 -0.000136
     7 H     0.001565  0.002107  0.000592
     8 H    -0.000404 -0.000059  0.000415
     9 H    -0.000587  0.000103 -0.000504
    10 H     0.000003  0.000979  0.000162
 ----------------------------------------

 dE(predicted):    -0.51521E-03, dE(actual):    -0.51577E-03, Trust radius:    0.126797, all in a.u.
 
----------------------------------------------------------------------
Geometry Convergence after Step   5       (Hartree/Angstrom,Angstrom)
----------------------------------------------------------------------
current energy                               -2.01588059 Hartree
energy change                      -0.00051577     0.00010000    F
constrained gradient max            0.00879616     0.00100000    F
constrained gradient rms            0.00247680     0.00066667    F
gradient max                        0.00879616
gradient rms                        0.00247680
cart. step max                      0.02652919     0.01000000    F
cart. step rms                      0.01140677     0.00666667    F
 

--------
Geometry
--------
Formula: C3H5O2
Atoms
  Index Symbol   x (angstrom)   y (angstrom)   z (angstrom)
      1      C    -0.47156384     0.14421872    -1.42085244
      2      C    -0.48458591    -0.84336117    -0.36341925
      3      O    -1.41128888    -0.75194989     0.65622622
      4      C    -2.39671494     0.30873262     0.65778840
      5      O     0.31167227    -1.77963297    -0.33354163
      6      H    -1.13938025     0.99732366    -1.46735671
      7      H     0.26672274     0.00944488    -2.20341597
      8      H    -3.01824596     0.12552253     1.53657188
      9      H    -3.02177278     0.27346066    -0.24314099
     10      H    -1.92055358     1.29325483     0.74791774

Total System Charge              0.00000

 *** GO1_GOStep6 ***

 Energy gradients wrt nuclear displacements
 ==========================================

     Atom      Cartesian (a.u./angstrom)
                 X         Y         Z
 ----------------------------------------
     1 C     0.000566 -0.001540  0.000934
     2 C     0.001904 -0.000972  0.000551
     3 O     0.000136  0.000604 -0.000462
     4 C    -0.000065 -0.000837  0.000090
     5 O    -0.002263  0.002319 -0.000677
     6 H     0.000158 -0.000075 -0.000301
     7 H    -0.000163  0.000280 -0.000247
     8 H    -0.000149  0.000024 -0.000078
     9 H    -0.000092  0.000151  0.000076
    10 H    -0.000032  0.000044  0.000114
 ----------------------------------------

 dE(predicted):    -0.24241E-03, dE(actual):    -0.22334E-03, Trust radius:    0.253595, all in a.u.
 
----------------------------------------------------------------------
Geometry Convergence after Step   6       (Hartree/Angstrom,Angstrom)
----------------------------------------------------------------------
current energy                               -2.01610394 Hartree
energy change                      -0.00022334     0.00010000    F
constrained gradient max            0.00230512     0.00100000    F
constrained gradient rms            0.00083801     0.00066667    F
gradient max                        0.00230512
gradient rms                        0.00083801
cart. step max                      0.00565812     0.01000000    T
cart. step rms                      0.00280757     0.00666667    T
 

--------
Geometry
--------
Formula: C3H5O2
Atoms
  Index Symbol   x (angstrom)   y (angstrom)   z (angstrom)
      1      C    -0.47488878     0.14480481    -1.41897946
      2      C    -0.48600994    -0.84599105    -0.36358926
      3      O    -1.41343994    -0.75579248     0.65567365
      4      C    -2.39508743     0.30867604     0.65559511
      5      O     0.31485135    -1.78024050    -0.33192111
      6      H    -1.14439999     0.99682616    -1.46284118
      7      H     0.26562072     0.01419760    -2.20015479
      8      H    -3.01624947     0.13000664     1.53557230
      9      H    -3.02088794     0.27283744    -0.24483765
     10      H    -1.91521970     1.29168920     0.74225962

Total System Charge              0.00000

 *** GO1_GOStep7 ***

 Energy gradients wrt nuclear displacements
 ==========================================

     Atom      Cartesian (a.u./angstrom)
                 X         Y         Z
 ----------------------------------------
     1 C    -0.000028 -0.000298  0.000566
     2 C    -0.000493  0.000268 -0.000017
     3 O    -0.000082  0.000562  0.000083
     4 C     0.000264 -0.000469 -0.000216
     5 O     0.000603 -0.000602 -0.000074
     6 H    -0.000078  0.000159 -0.000121
     7 H    -0.000051  0.000191 -0.000112
     8 H    -0.000119  0.000002 -0.000045
     9 H    -0.000008  0.000092 -0.000066
    10 H    -0.000008  0.000096  0.000004
 ----------------------------------------

 dE(predicted):    -0.81737E-05, dE(actual):    -0.76935E-05, Trust radius:    0.253595, all in a.u.
 
---------------------------------------------------------
Geometry Convergence after Step   7       ** CONVERGED **
---------------------------------------------------------
current energy                               -2.01611163 Hartree
energy change                      -0.00000769     0.00010000    T
constrained gradient max            0.00061747     0.00100000    T
constrained gradient rms            0.00027390     0.00066667    T
gradient max                        0.00061747
gradient rms                        0.00027390
cart. step max                      0.00335953     0.01000000    T
cart. step rms                      0.00134580     0.00666667    T
 
Geometry optimization converged

Optimized geometry:

--------
Geometry
--------
Formula: C3H5O2
Atoms
  Index Symbol   x (angstrom)   y (angstrom)   z (angstrom)
      1      C    -0.47488878     0.14480481    -1.41897946
      2      C    -0.48600994    -0.84599105    -0.36358926
      3      O    -1.41343994    -0.75579248     0.65567365
      4      C    -2.39508743     0.30867604     0.65559511
      5      O     0.31485135    -1.78024050    -0.33192111
      6      H    -1.14439999     0.99682616    -1.46284118
      7      H     0.26562072     0.01419760    -2.20015479
      8      H    -3.01624947     0.13000664     1.53557230
      9      H    -3.02088794     0.27283744    -0.24483765
     10      H    -1.91521970     1.29168920     0.74225962

Total System Charge              0.00000

Performing a single point calculation on the final geometry ...

 *** adf ***



 ===========================
 A T T A C H E D   F I L E S
 ===========================
  
 Restart/tmp/amstmp_optA_kid0.2136886318/GO1_GOStep7.rkf*** GO1_GOStep7 ***



 ===============================
 M O D E L   P A R A M E T E R S
 ===============================
  
 DENSITY FUNCTIONAL POTENTIAL (scf)
    LDA:                               Exchange only                           == Not Default ==
    Gradient Corrections:              Becke88 LYP                             == Not Default ==

 SPIN  (restricted / unrestr.)
    Molecule:                          UNrestricted                            == Not Default ==
    Fragments:                         Restricted                               

 OTHER ASPECTS
    Relativistic Corrections:          scalar (ZORA,MAPA)                       

    Nuclear Charge Density Model:      Point Charge Nuclei                      
    Core Treatment:                    Frozen Orbital(s)                        

    Hyperfine or Zeeman Interaction:   ---                                      

 Settings for Grimme D3 dispersion correction

      damping                        BJ
      s6                          1.000
      s8                          2.700
      a1                          0.430
      a2                          4.236

 Other (technical) parameters

      alpha                      14.000
      version                         4
 



 ===============
 G E O M E T R Y  ***  3D  Molecule  ***
 ===============
  

 ATOMS
 =====                            X Y Z                    CHARGE
                                (Angstrom)             Nucl     +Core       At.Mass
                       --------------------------    ----------------       -------
    1  C              -0.4749    0.1448   -1.4190      6.00      6.00       12.0000
    2  C              -0.4860   -0.8460   -0.3636      6.00      6.00       12.0000
    3  O              -1.4134   -0.7558    0.6557      8.00      8.00       15.9949
    4  C              -2.3951    0.3087    0.6556      6.00      6.00       12.0000
    5  O               0.3149   -1.7802   -0.3319      8.00      8.00       15.9949
    6  H              -1.1444    0.9968   -1.4628      1.00      1.00        1.0078
    7  H               0.2656    0.0142   -2.2002      1.00      1.00        1.0078
    8  H              -3.0162    0.1300    1.5356      1.00      1.00        1.0078
    9  H              -3.0209    0.2728   -0.2448      1.00      1.00        1.0078
   10  H              -1.9152    1.2917    0.7423      1.00      1.00        1.0078


 FRAGMENTS
 =========                                     Atoms in this Fragment     Cart. coord.s (Angstrom)
                                               -------------------------------------------------------
    1  C                                                 1  C           -0.4749    0.1448   -1.4190
    2  C                                                 2  C           -0.4860   -0.8460   -0.3636
    3  C                                                 4  C           -2.3951    0.3087    0.6556
    4  O                                                 3  O           -1.4134   -0.7558    0.6557
    5  O                                                 5  O            0.3149   -1.7802   -0.3319
    6  H                                                 6  H           -1.1444    0.9968   -1.4628
    7  H                                                 7  H            0.2656    0.0142   -2.2002
    8  H                                                 8  H           -3.0162    0.1300    1.5356
    9  H                                                 9  H           -3.0209    0.2728   -0.2448
   10  H                                                10  H           -1.9152    1.2917    0.7423


 Interatomic Distance Matrix (Angstrom)
 --------------------------------------

   1)     0.000
   2)     1.448   0.000
   3)     2.449   1.381   0.000
   4)     2.832   2.453   1.448   0.000
   5)     2.348   1.231   2.239   3.561   0.000
   6)     1.084   2.245   2.763   2.555   3.335   0.000
   7)     1.084   2.163   3.401   3.914   2.591   1.870   0.000
   8)     3.897   3.311   2.032   1.092   4.270   3.639   4.974   0.000
   9)     2.807   2.773   2.110   1.097   3.918   2.351   3.833   1.786   0.000
  10)     2.839   2.799   2.110   1.097   3.945   2.354   3.879   1.786   1.799   0.000

 Min. Distance =    1.0843
 Max. Distance =    4.9739



 =====================================
 S Y M M E T R Y ,   E L E C T R O N S
 =====================================
  
 Symmetry: NOSYM

 Irreducible Representations, including subspecies
 -------------------------------------------------
 A


 Configuration of Valence Electrons
 ==================================
 ( determined in the SCF procedure )

 Total:   20 (Spin-A)  + 19 (Spin-B)

 Net Charge: 0 (Nuclei minus Electrons)
 Spin polar: 1 (Spin_A minus Spin_B electrons)

 Aufbau principle for MO occupations will be applied through SCF cycle no.     150
 Thereafter, the program will assign electrons to MOs that are spatially
 similar to the occupied MOs in a "reference" cycle ("KeepOrbitals").
 The reference cycle is always the PREVIOUS cycle: it will evolve with
 the SCF procedure.
 ***************************************************************************************************



                                      ****************************************
                                      *  B U I L D : (Fragments, Functions)  *
                                      ****************************************
  



 =======
 S F O s  ***  (Symmetrized Fragment Orbitals)  ***
 =======
  
 SFOs are linear combinations of (valence) Fragment Orbitals (FOs), such that the SFOs transform as the
 irreducible representations of the (molecular) symmetry group. Each SFO is therefore characterized by
 an irrep of the molecule and by a few (or only one) generating FOs.
 The SFOs constitute a symmetry-adapted basis for the Fock matrix. The MO eigenvector coefficients in
 this basis provide a direct interpretation of the MOs in terms of Frontier Orbital Theory.

 The SFOs are combined with auxiliary Core Functions (CFs) to ensure orthogonalization on the (frozen)
 Core Orbitals (COs). The Core-orthogonalized SFOs (CSFOs) constitute the true Fock basis.

 The FOs, and hence also the (C)SFOs are combinations of the elementary basis functions (BAS). The basis
 functions that participate in the description of the SFOs depend on the irrep. The indices of the
 involved functions are printed below for each irrep.
 (The complete list of primitive basis functions is printed in another section)

 Total nr. of (C)SFOs (summation over all irreps) :   185

 NOTE: a (C)SFO that is defined as a combination of more than one FO is usually NOT normalized.



                                       === A ===
 Nr. of SFOs :  185
 Cartesian basis functions that participate in this irrep (total number =   210) :
      1     2     3     4     5     6     9    12     7    10
     13     8    11    14    15    16    17    18    19    20
     21    22    23    24    25    26    27    28    29    30
     31    32    33    34    35    36    39    42    37    40
     43    38    41    44    45    46    47    48    49    50
     51    52    53    54    55    56    57    58    59    60
     61    62    63    64    65    66    69    72    67    70
     73    68    71    74    75    76    77    78    79    80
     81    82    83    84    85    86    87    88    89    90
     91    92    93    94    95    96    99   102    97   100
    103    98   101   104   105   106   107   108   109   110
    111   112   113   114   115   116   117   118   119   120
    121   122   123   124   125   126   129   132   127   130
    133   128   131   134   135   136   137   138   139   140
    141   142   143   144   145   146   147   148   149   150
    151   152   153   154   155   156   157   158   159   160
    161   162   163   164   165   166   167   168   169   170
    171   172   173   174   175   176   177   178   179   180
    181   182   183   184   185   186   187   188   189   190
    191   192   193   194   195   196   197   198   199   200
    201   202   203   204   205   206   207   208   209   210

    SFO  (index         Fragment          Generating    Expansion in Fragment Orbitals
  indx  incl.CFs)   Occup   Orb.Energy   FragmentType  Coeff.   Orbital     on Fragment
 --------------------------------------------------------------------------------------
     1       1      2.000     -10.066 au  C             1.00      1 S               1
                        (    -273.921 eV)
     2       2      2.000      -0.501 au  C             1.00      2 S               1
                        (     -13.620 eV)
     3       3       --         0.373 au  C             1.00      3 S               1
                        (      10.158 eV)
     4       4       --         5.405 au  C             1.00      4 S               1
                        (     147.073 eV)
     5       5       --        49.848 au  C             1.00      5 S               1
                        (    1356.422 eV)
     6       6      0.667      -0.193 au  C             1.00      1 P:x             1
                        (      -5.239 eV)
     7       7       --         0.169 au  C             1.00      2 P:x             1
                        (       4.589 eV)
     8       8       --         2.013 au  C             1.00      3 P:x             1
                        (      54.789 eV)
     9       9      0.667      -0.193 au  C             1.00      1 P:y             1
                        (      -5.239 eV)
    10      10       --         0.169 au  C             1.00      2 P:y             1
                        (       4.589 eV)
    11      11       --         2.013 au  C             1.00      3 P:y             1
                        (      54.789 eV)
    12      12      0.667      -0.193 au  C             1.00      1 P:z             1
                        (      -5.239 eV)
    13      13       --         0.169 au  C             1.00      2 P:z             1
                        (       4.589 eV)
    14      14       --         2.013 au  C             1.00      3 P:z             1
                        (      54.789 eV)
    15      15       --         1.243 au  C             1.00      1 D:z2            1
                        (      33.824 eV)
    16      16       --         1.243 au  C             1.00      1 D:x2-y2         1
                        (      33.824 eV)
    17      17       --         1.243 au  C             1.00      1 D:xy            1
                        (      33.824 eV)
    18      18       --         1.243 au  C             1.00      1 D:xz            1
                        (      33.824 eV)
    19      19       --         1.243 au  C             1.00      1 D:yz            1
                        (      33.824 eV)
    20      20       --         4.016 au  C             1.00      1 F:z3            1
                        (     109.271 eV)
    21      21       --         4.016 au  C             1.00      1 F:z             1
                        (     109.271 eV)
    22      22       --         4.016 au  C             1.00      1 F:xyz           1
                        (     109.271 eV)
    23      23       --         4.016 au  C             1.00      1 F:z2x           1
                        (     109.271 eV)
    24      24       --         4.016 au  C             1.00      1 F:z2y           1
                        (     109.271 eV)
    25      25       --         4.016 au  C             1.00      1 F:x             1
                        (     109.271 eV)
    26      26       --         4.016 au  C             1.00      1 F:y             1
                        (     109.271 eV)
    27      27      2.000     -10.066 au  C             1.00      1 S               2
                        (    -273.921 eV)
    28      28      2.000      -0.501 au  C             1.00      2 S               2
                        (     -13.620 eV)
    29      29       --         0.373 au  C             1.00      3 S               2
                        (      10.158 eV)
    30      30       --         5.405 au  C             1.00      4 S               2
                        (     147.073 eV)
    31      31       --        49.848 au  C             1.00      5 S               2
                        (    1356.422 eV)
    32      32      0.667      -0.193 au  C             1.00      1 P:x             2
                        (      -5.239 eV)
    33      33       --         0.169 au  C             1.00      2 P:x             2
                        (       4.589 eV)
    34      34       --         2.013 au  C             1.00      3 P:x             2
                        (      54.789 eV)
    35      35      0.667      -0.193 au  C             1.00      1 P:y             2
                        (      -5.239 eV)
    36      36       --         0.169 au  C             1.00      2 P:y             2
                        (       4.589 eV)
    37      37       --         2.013 au  C             1.00      3 P:y             2
                        (      54.789 eV)
    38      38      0.667      -0.193 au  C             1.00      1 P:z             2
                        (      -5.239 eV)
    39      39       --         0.169 au  C             1.00      2 P:z             2
                        (       4.589 eV)
    40      40       --         2.013 au  C             1.00      3 P:z             2
                        (      54.789 eV)
    41      41       --         1.243 au  C             1.00      1 D:z2            2
                        (      33.824 eV)
    42      42       --         1.243 au  C             1.00      1 D:x2-y2         2
                        (      33.824 eV)
    43      43       --         1.243 au  C             1.00      1 D:xy            2
                        (      33.824 eV)
    44      44       --         1.243 au  C             1.00      1 D:xz            2
                        (      33.824 eV)
    45      45       --         1.243 au  C             1.00      1 D:yz            2
                        (      33.824 eV)
    46      46       --         4.016 au  C             1.00      1 F:z3            2
                        (     109.271 eV)
    47      47       --         4.016 au  C             1.00      1 F:z             2
                        (     109.271 eV)
    48      48       --         4.016 au  C             1.00      1 F:xyz           2
                        (     109.271 eV)
    49      49       --         4.016 au  C             1.00      1 F:z2x           2
                        (     109.271 eV)
    50      50       --         4.016 au  C             1.00      1 F:z2y           2
                        (     109.271 eV)
    51      51       --         4.016 au  C             1.00      1 F:x             2
                        (     109.271 eV)
    52      52       --         4.016 au  C             1.00      1 F:y             2
                        (     109.271 eV)
    53      53      2.000     -10.066 au  C             1.00      1 S               3
                        (    -273.921 eV)
    54      54      2.000      -0.501 au  C             1.00      2 S               3
                        (     -13.620 eV)
    55      55       --         0.373 au  C             1.00      3 S               3
                        (      10.158 eV)
    56      56       --         5.405 au  C             1.00      4 S               3
                        (     147.073 eV)
    57      57       --        49.848 au  C             1.00      5 S               3
                        (    1356.422 eV)
    58      58      0.667      -0.193 au  C             1.00      1 P:x             3
                        (      -5.239 eV)
    59      59       --         0.169 au  C             1.00      2 P:x             3
                        (       4.589 eV)
    60      60       --         2.013 au  C             1.00      3 P:x             3
                        (      54.789 eV)
    61      61      0.667      -0.193 au  C             1.00      1 P:y             3
                        (      -5.239 eV)
    62      62       --         0.169 au  C             1.00      2 P:y             3
                        (       4.589 eV)
    63      63       --         2.013 au  C             1.00      3 P:y             3
                        (      54.789 eV)
    64      64      0.667      -0.193 au  C             1.00      1 P:z             3
                        (      -5.239 eV)
    65      65       --         0.169 au  C             1.00      2 P:z             3
                        (       4.589 eV)
    66      66       --         2.013 au  C             1.00      3 P:z             3
                        (      54.789 eV)
    67      67       --         1.243 au  C             1.00      1 D:z2            3
                        (      33.824 eV)
    68      68       --         1.243 au  C             1.00      1 D:x2-y2         3
                        (      33.824 eV)
    69      69       --         1.243 au  C             1.00      1 D:xy            3
                        (      33.824 eV)
    70      70       --         1.243 au  C             1.00      1 D:xz            3
                        (      33.824 eV)
    71      71       --         1.243 au  C             1.00      1 D:yz            3
                        (      33.824 eV)
    72      72       --         4.016 au  C             1.00      1 F:z3            3
                        (     109.271 eV)
    73      73       --         4.016 au  C             1.00      1 F:z             3
                        (     109.271 eV)
    74      74       --         4.016 au  C             1.00      1 F:xyz           3
                        (     109.271 eV)
    75      75       --         4.016 au  C             1.00      1 F:z2x           3
                        (     109.271 eV)
    76      76       --         4.016 au  C             1.00      1 F:z2y           3
                        (     109.271 eV)
    77      77       --         4.016 au  C             1.00      1 F:x             3
                        (     109.271 eV)
    78      78       --         4.016 au  C             1.00      1 F:y             3
                        (     109.271 eV)
    79      79      2.000     -18.941 au  O             1.00      1 S               4
                        (    -515.403 eV)
    80      80      2.000      -0.876 au  O             1.00      2 S               4
                        (     -23.838 eV)
    81      81       --         0.791 au  O             1.00      3 S               4
                        (      21.524 eV)
    82      82       --        13.422 au  O             1.00      4 S               4
                        (     365.226 eV)
    83      83       --       121.561 au  O             1.00      5 S               4
                        (    3307.838 eV)
    84      84      1.333      -0.331 au  O             1.00      1 P:x             4
                        (      -9.020 eV)
    85      85       --         0.347 au  O             1.00      2 P:x             4
                        (       9.437 eV)
    86      86       --         3.820 au  O             1.00      3 P:x             4
                        (     103.939 eV)
    87      87      1.333      -0.331 au  O             1.00      1 P:y             4
                        (      -9.020 eV)
    88      88       --         0.347 au  O             1.00      2 P:y             4
                        (       9.437 eV)
    89      89       --         3.820 au  O             1.00      3 P:y             4
                        (     103.939 eV)
    90      90      1.333      -0.331 au  O             1.00      1 P:z             4
                        (      -9.020 eV)
    91      91       --         0.347 au  O             1.00      2 P:z             4
                        (       9.437 eV)
    92      92       --         3.820 au  O             1.00      3 P:z             4
                        (     103.939 eV)
    93      93       --         1.071 au  O             1.00      1 D:z2            4
                        (      29.134 eV)
    94      94       --         1.071 au  O             1.00      1 D:x2-y2         4
                        (      29.134 eV)
    95      95       --         1.071 au  O             1.00      1 D:xy            4
                        (      29.134 eV)
    96      96       --         1.071 au  O             1.00      1 D:xz            4
                        (      29.134 eV)
    97      97       --         1.071 au  O             1.00      1 D:yz            4
                        (      29.134 eV)
    98      98       --         3.359 au  O             1.00      1 F:z3            4
                        (      91.410 eV)
    99      99       --         3.359 au  O             1.00      1 F:z             4
                        (      91.410 eV)
   100     100       --         3.359 au  O             1.00      1 F:xyz           4
                        (      91.410 eV)
   101     101       --         3.359 au  O             1.00      1 F:z2x           4
                        (      91.410 eV)
   102     102       --         3.359 au  O             1.00      1 F:z2y           4
                        (      91.410 eV)
   103     103       --         3.359 au  O             1.00      1 F:x             4
                        (      91.410 eV)
   104     104       --         3.359 au  O             1.00      1 F:y             4
                        (      91.410 eV)
   105     105      2.000     -18.941 au  O             1.00      1 S               5
                        (    -515.403 eV)
   106     106      2.000      -0.876 au  O             1.00      2 S               5
                        (     -23.838 eV)
   107     107       --         0.791 au  O             1.00      3 S               5
                        (      21.524 eV)
   108     108       --        13.422 au  O             1.00      4 S               5
                        (     365.226 eV)
   109     109       --       121.561 au  O             1.00      5 S               5
                        (    3307.838 eV)
   110     110      1.333      -0.331 au  O             1.00      1 P:x             5
                        (      -9.020 eV)
   111     111       --         0.347 au  O             1.00      2 P:x             5
                        (       9.437 eV)
   112     112       --         3.820 au  O             1.00      3 P:x             5
                        (     103.939 eV)
   113     113      1.333      -0.331 au  O             1.00      1 P:y             5
                        (      -9.020 eV)
   114     114       --         0.347 au  O             1.00      2 P:y             5
                        (       9.437 eV)
   115     115       --         3.820 au  O             1.00      3 P:y             5
                        (     103.939 eV)
   116     116      1.333      -0.331 au  O             1.00      1 P:z             5
                        (      -9.020 eV)
   117     117       --         0.347 au  O             1.00      2 P:z             5
                        (       9.437 eV)
   118     118       --         3.820 au  O             1.00      3 P:z             5
                        (     103.939 eV)
   119     119       --         1.071 au  O             1.00      1 D:z2            5
                        (      29.134 eV)
   120     120       --         1.071 au  O             1.00      1 D:x2-y2         5
                        (      29.134 eV)
   121     121       --         1.071 au  O             1.00      1 D:xy            5
                        (      29.134 eV)
   122     122       --         1.071 au  O             1.00      1 D:xz            5
                        (      29.134 eV)
   123     123       --         1.071 au  O             1.00      1 D:yz            5
                        (      29.134 eV)
   124     124       --         3.359 au  O             1.00      1 F:z3            5
                        (      91.410 eV)
   125     125       --         3.359 au  O             1.00      1 F:z             5
                        (      91.410 eV)
   126     126       --         3.359 au  O             1.00      1 F:xyz           5
                        (      91.410 eV)
   127     127       --         3.359 au  O             1.00      1 F:z2x           5
                        (      91.410 eV)
   128     128       --         3.359 au  O             1.00      1 F:z2y           5
                        (      91.410 eV)
   129     129       --         3.359 au  O             1.00      1 F:x             5
                        (      91.410 eV)
   130     130       --         3.359 au  O             1.00      1 F:y             5
                        (      91.410 eV)
   131     131      1.000      -0.240 au  H             1.00      1 S               6
                        (      -6.532 eV)
   132     132       --         0.088 au  H             1.00      2 S               6
                        (       2.394 eV)
   133     133       --         1.502 au  H             1.00      3 S               6
                        (      40.869 eV)
   134     134       --         0.406 au  H             1.00      1 P:x             6
                        (      11.051 eV)
   135     135       --         0.406 au  H             1.00      1 P:y             6
                        (      11.051 eV)
   136     136       --         0.406 au  H             1.00      1 P:z             6
                        (      11.051 eV)
   137     137       --         2.569 au  H             1.00      1 D:z2            6
                        (      69.917 eV)
   138     138       --         2.569 au  H             1.00      1 D:x2-y2         6
                        (      69.917 eV)
   139     139       --         2.569 au  H             1.00      1 D:xy            6
                        (      69.917 eV)
   140     140       --         2.569 au  H             1.00      1 D:xz            6
                        (      69.917 eV)
   141     141       --         2.569 au  H             1.00      1 D:yz            6
                        (      69.917 eV)
   142     142      1.000      -0.240 au  H             1.00      1 S               7
                        (      -6.532 eV)
   143     143       --         0.088 au  H             1.00      2 S               7
                        (       2.394 eV)
   144     144       --         1.502 au  H             1.00      3 S               7
                        (      40.869 eV)
   145     145       --         0.406 au  H             1.00      1 P:x             7
                        (      11.051 eV)
   146     146       --         0.406 au  H             1.00      1 P:y             7
                        (      11.051 eV)
   147     147       --         0.406 au  H             1.00      1 P:z             7
                        (      11.051 eV)
   148     148       --         2.569 au  H             1.00      1 D:z2            7
                        (      69.917 eV)
   149     149       --         2.569 au  H             1.00      1 D:x2-y2         7
                        (      69.917 eV)
   150     150       --         2.569 au  H             1.00      1 D:xy            7
                        (      69.917 eV)
   151     151       --         2.569 au  H             1.00      1 D:xz            7
                        (      69.917 eV)
   152     152       --         2.569 au  H             1.00      1 D:yz            7
                        (      69.917 eV)
   153     153      1.000      -0.240 au  H             1.00      1 S               8
                        (      -6.532 eV)
   154     154       --         0.088 au  H             1.00      2 S               8
                        (       2.394 eV)
   155     155       --         1.502 au  H             1.00      3 S               8
                        (      40.869 eV)
   156     156       --         0.406 au  H             1.00      1 P:x             8
                        (      11.051 eV)
   157     157       --         0.406 au  H             1.00      1 P:y             8
                        (      11.051 eV)
   158     158       --         0.406 au  H             1.00      1 P:z             8
                        (      11.051 eV)
   159     159       --         2.569 au  H             1.00      1 D:z2            8
                        (      69.917 eV)
   160     160       --         2.569 au  H             1.00      1 D:x2-y2         8
                        (      69.917 eV)
   161     161       --         2.569 au  H             1.00      1 D:xy            8
                        (      69.917 eV)
   162     162       --         2.569 au  H             1.00      1 D:xz            8
                        (      69.917 eV)
   163     163       --         2.569 au  H             1.00      1 D:yz            8
                        (      69.917 eV)
   164     164      1.000      -0.240 au  H             1.00      1 S               9
                        (      -6.532 eV)
   165     165       --         0.088 au  H             1.00      2 S               9
                        (       2.394 eV)
   166     166       --         1.502 au  H             1.00      3 S               9
                        (      40.869 eV)
   167     167       --         0.406 au  H             1.00      1 P:x             9
                        (      11.051 eV)
   168     168       --         0.406 au  H             1.00      1 P:y             9
                        (      11.051 eV)
   169     169       --         0.406 au  H             1.00      1 P:z             9
                        (      11.051 eV)
   170     170       --         2.569 au  H             1.00      1 D:z2            9
                        (      69.917 eV)
   171     171       --         2.569 au  H             1.00      1 D:x2-y2         9
                        (      69.917 eV)
   172     172       --         2.569 au  H             1.00      1 D:xy            9
                        (      69.917 eV)
   173     173       --         2.569 au  H             1.00      1 D:xz            9
                        (      69.917 eV)
   174     174       --         2.569 au  H             1.00      1 D:yz            9
                        (      69.917 eV)
   175     175      1.000      -0.240 au  H             1.00      1 S              10
                        (      -6.532 eV)
   176     176       --         0.088 au  H             1.00      2 S              10
                        (       2.394 eV)
   177     177       --         1.502 au  H             1.00      3 S              10
                        (      40.869 eV)
   178     178       --         0.406 au  H             1.00      1 P:x            10
                        (      11.051 eV)
   179     179       --         0.406 au  H             1.00      1 P:y            10
                        (      11.051 eV)
   180     180       --         0.406 au  H             1.00      1 P:z            10
                        (      11.051 eV)
   181     181       --         2.569 au  H             1.00      1 D:z2           10
                        (      69.917 eV)
   182     182       --         2.569 au  H             1.00      1 D:x2-y2        10
                        (      69.917 eV)
   183     183       --         2.569 au  H             1.00      1 D:xy           10
                        (      69.917 eV)
   184     184       --         2.569 au  H             1.00      1 D:xz           10
                        (      69.917 eV)
   185     185       --         2.569 au  H             1.00      1 D:yz           10
                        (      69.917 eV)



 ================================
 (Slater-type)  F U N C T I O N S  ***  (Basis and Fit)  ***
 ================================
  

 Atom Type    1  (C)
 ==============

 Valence Basis Sets:  10
 -----------------------
   1 S    7.680000
   1 S    5.000000
   2 S    1.280000
   2 S    2.100000
   2 S    4.600000
   2 P    0.820000
   2 P    1.480000
   2 P    2.940000
   3 D    2.200000
   4 F    3.300000

 Atom Type    2  (O)
 ==============

 Valence Basis Sets:  10
 -----------------------
   1 S    9.800000
   1 S    6.800000
   2 S    7.580000
   2 S    2.880000
   2 S    1.720000
   2 P    4.080000
   2 P    2.080000
   2 P    1.120000
   3 D    2.000000
   4 F    3.000000

 Atom Type    3  (H)
 ==============

 Valence Basis Sets:   5
 -----------------------
   1 S    0.690000
   1 S    0.920000
   1 S    1.580000
   2 P    1.250000
   3 D    2.500000


 BAS: List of all Elementary Cartesian Basis Functions
 =====================================================

 The numbering in the list below (to the right of the function characteristics) is referred
 to in print-outs of MO eigenvectors and Mulliken populations in the BAS representation
 (as contrasted to the SFO representation).

 Notes:
 1. The functions are characterized by a polynomial prefactor (powers of x,y,z and r) and
    an exponential decay factor alpha.
 2. Since the basis sets are specific for an atom TYPE, the individual functions occur on
    all atoms of that type.
 3. The word 'Core' in the left margin signals that it is a Core Function (CF) : not a
    degree of freedom in the valence set, but only used to ensure orthogonalization of
    the other valence basis functions on the frozen Core Orbitals.


 (power of) X  Y  Z  R     Alpha  on Atom
            ==========     =====     ==========

 C                                    1    2    3
                                  ---------------------------------------------------------------------------
            0  0  0  0     7.680      1   31   61
            0  0  0  0     5.000      2   32   62
            0  0  0  1     1.280      3   33   63
            0  0  0  1     2.100      4   34   64
            0  0  0  1     4.600      5   35   65
            1  0  0  0     0.820      6   36   66
            0  1  0  0     0.820      7   37   67
            0  0  1  0     0.820      8   38   68
            1  0  0  0     1.480      9   39   69
            0  1  0  0     1.480     10   40   70
            0  0  1  0     1.480     11   41   71
            1  0  0  0     2.940     12   42   72
            0  1  0  0     2.940     13   43   73
            0  0  1  0     2.940     14   44   74
            2  0  0  0     2.200     15   45   75
            1  1  0  0     2.200     16   46   76
            1  0  1  0     2.200     17   47   77
            0  2  0  0     2.200     18   48   78
            0  1  1  0     2.200     19   49   79
            0  0  2  0     2.200     20   50   80
            3  0  0  0     3.300     21   51   81
            2  1  0  0     3.300     22   52   82
            2  0  1  0     3.300     23   53   83
            1  2  0  0     3.300     24   54   84
            1  1  1  0     3.300     25   55   85
            1  0  2  0     3.300     26   56   86
            0  3  0  0     3.300     27   57   87
            0  2  1  0     3.300     28   58   88
            0  1  2  0     3.300     29   59   89
            0  0  3  0     3.300     30   60   90

 O                                    4    5
                                  ---------------------------------------------------------------------------
            0  0  0  0     9.800     91  121
            0  0  0  0     6.800     92  122
            0  0  0  1     7.580     93  123
            0  0  0  1     2.880     94  124
            0  0  0  1     1.720     95  125
            1  0  0  0     4.080     96  126
            0  1  0  0     4.080     97  127
            0  0  1  0     4.080     98  128
            1  0  0  0     2.080     99  129
            0  1  0  0     2.080    100  130
            0  0  1  0     2.080    101  131
            1  0  0  0     1.120    102  132
            0  1  0  0     1.120    103  133
            0  0  1  0     1.120    104  134
            2  0  0  0     2.000    105  135
            1  1  0  0     2.000    106  136
            1  0  1  0     2.000    107  137
            0  2  0  0     2.000    108  138
            0  1  1  0     2.000    109  139
            0  0  2  0     2.000    110  140
            3  0  0  0     3.000    111  141
            2  1  0  0     3.000    112  142
            2  0  1  0     3.000    113  143
            1  2  0  0     3.000    114  144
            1  1  1  0     3.000    115  145
            1  0  2  0     3.000    116  146
            0  3  0  0     3.000    117  147
            0  2  1  0     3.000    118  148
            0  1  2  0     3.000    119  149
            0  0  3  0     3.000    120  150

 H                                    6    7    8    9   10
                                  ---------------------------------------------------------------------------
            0  0  0  0     0.690    151  163  175  187  199
            0  0  0  0     0.920    152  164  176  188  200
            0  0  0  0     1.580    153  165  177  189  201
            1  0  0  0     1.250    154  166  178  190  202
            0  1  0  0     1.250    155  167  179  191  203
            0  0  1  0     1.250    156  168  180  192  204
            2  0  0  0     2.500    157  169  181  193  205
            1  1  0  0     2.500    158  170  182  194  206
            1  0  1  0     2.500    159  171  183  195  207
            0  2  0  0     2.500    160  172  184  196  208
            0  1  1  0     2.500    161  173  185  197  209
            0  0  2  0     2.500    162  174  186  198  210

 Total number of charge fitting functions (nprimf)       670
 Total number of Cartesian basis functions (naos)        210
 Total number of Cartesian core functions  (ncos)          0

 ***************************************************************************************************



                                              ***********************
                                              *  T E C H N I C A L  *
                                              ***********************
  



 =============================================================
 P A R A L L E L I Z A T I O N  and  V E C T O R I Z A T I O N
 =============================================================
  
 Nr of parallel processes:                                1
 Maximum vector length in NumInt loops:                 128



 =====================
 S C F   U P D A T E S
 =====================
  
 Max. nr. of cycles:                               300
 Convergence criterion:                              0.0000010000
   secondary criterion:                              0.0010000000

 Mix parameter (when DIIS does not apply):           0.0500000000
 Mixed ADIIS+SDIIS will be used                  
    Max number of expansion vectors:                10
    Pure ADIIS when Max([F,P]) is above              0.1000000000
    Pure SDIIS when Max([F,P]) is below              0.0010000000
 Automatic ElectronSmearing (in case of problematic SCF convergence) disabled



 =================
 P R E C I S I O N  ***  (General: NumInt, NeglectFunctionTails, ...)  ***
 =================
  

 NumInt:           Target precision:                 6.0000000000
 -------           Initial precision:                6.0000000000
                   Min. precision (optimization):    6.0000000000

 Neglect Functions:          Basis functions:        0.1000000000E-07
 ------------------          Fit functions:          0.1000000000E-07



 ===========================
 L I N E A R   S C A L I N G
 ===========================
  

 Cut-off radii density fit:                        0.1000000000E-09
 Overlap cut-off criterion AO matrix elements:     0.1000000000E-07
 Cut-offs for Coulomb potential and fitted density:0.1000000000E-09
 Cut-off criterion for Coulomb multipole terms:    0.1000000000E-09
 Progressive Convergence parameter:                 0.000000000    

 Number of elements of the density matrix on this node (used, total):     22155     22155



 ===========================================
 Numerical Integration : Fuzzy Cells (Becke)
 ===========================================
  
 Becke grid quality: GOOD           
  
 Lebedev angular grid order:             min:  11 max:  31
 Nr. of radial points:                   min:  54 max:  61

 Total nr. of points:     123363
 Nr. of blocks:              964
 Block length:               128
 Nr. of dummy points:         29


 Test of Precision of the Numerical Integration Grid
 ===================================================

 Integral of the Total Core Density:                   0.00000000000000



 ========================
 Density Fitting (zlmFit)
 ========================
  
 ZlmFit Fit Quality: GOOD           
  
 Max L-expansion:                        min:   8 max:   9
 Nr. of radial interpolation points:     min:  78 max: 108



 =====
 S C F  ***  ScaSCF  ***
 =====
  
 Initial density matrix is taken from previous geometry

 CYCLE    1
  ***********************************************************
  ** : orbital data taken from :/tmp/amstmp_optA_kid0.2136886318/GO1_GOStep7.rkf
  ***********************************************************
 SCF Error: norm([F,P])=      0.000000552798, max([F,P])=      0.000000085109
 ***** SPIN 1 *****
 orbitals (Q,E):
 ---------------
 A :11...30          ( 1.00    -0.4703)  ( 1.00    -0.4357)  ( 1.00    -0.4331)  ( 1.00    -0.3890)
                     ( 1.00    -0.3744)  ( 1.00    -0.3708)  ( 1.00    -0.3093)  ( 1.00    -0.2650)
                     ( 1.00    -0.2376)  ( 1.00    -0.2310)  ( 0.00    -0.0162)  ( 0.00    -0.0083)
                     ( 0.00     0.0132)  ( 0.00     0.0258)  ( 0.00     0.0408)  ( 0.00     0.0496)
                     ( 0.00     0.0684)  ( 0.00     0.1154)  ( 0.00     0.1407)  ( 0.00     0.1432)
 ***** SPIN 2 *****
 orbitals (Q,E):
 ---------------
 A :10...29          ( 1.00    -0.5135)  ( 1.00    -0.4642)  ( 1.00    -0.4322)  ( 1.00    -0.4310)
                     ( 1.00    -0.3849)  ( 1.00    -0.3700)  ( 1.00    -0.3605)  ( 1.00    -0.3082)
                     ( 1.00    -0.2565)  ( 1.00    -0.2317)  ( 0.00    -0.1719)  ( 0.00    -0.0147)
                     ( 0.00     0.0082)  ( 0.00     0.0151)  ( 0.00     0.0261)  ( 0.00     0.0421)
                     ( 0.00     0.0503)  ( 0.00     0.0698)  ( 0.00     0.1166)  ( 0.00     0.1424)
  
 Spin polar: 1 (Spin_A minus Spin_B electrons)

 CYCLE    2
   MIX coefficients:  0.9500  0.0500
 SCF Error: norm([F,P])=      0.000001375190, max([F,P])=      0.000000192371
 ***** SPIN 1 *****
 orbitals (Q,E):
 ---------------
 A :11...21          ( 1.00    -0.4703)  ( 1.00    -0.4357)  ( 1.00    -0.4331)  ( 1.00    -0.3890)
                     ( 1.00    -0.3744)  ( 1.00    -0.3708)  ( 1.00    -0.3093)  ( 1.00    -0.2650)
                     ( 1.00    -0.2376)  ( 1.00    -0.2310)  ( 0.00    -0.0162)
 ***** SPIN 2 *****
 orbitals (Q,E):
 ---------------
 A :10...20          ( 1.00    -0.5135)  ( 1.00    -0.4642)  ( 1.00    -0.4322)  ( 1.00    -0.4310)
                     ( 1.00    -0.3849)  ( 1.00    -0.3700)  ( 1.00    -0.3605)  ( 1.00    -0.3082)
                     ( 1.00    -0.2565)  ( 1.00    -0.2317)  ( 0.00    -0.1719)
  
 Spin polar: 1 (Spin_A minus Spin_B electrons)

 SCF CONVERGED

 CYCLE    3
 ***************************************************************************************************



                                                *******************
                                                *  R E S U L T S  *
                                                *******************
  
 *** Using FIT density in Focky
  SDIIS (wt  0.000): -2.0000  3.0000
 A-DIIS (wt  1.000):  0.0000  1.0000
  DIIS coefficients:  0.0000  1.0000
 SCF Error: norm([F,P])=      0.000001055063, max([F,P])=      0.000000147689


                                   ***** SPIN 1 *****

 Scaled ZORA Orbital Energies, per Irrep and Spin:
 =================================================
                        Occup              E (au)              E (eV)       Diff (eV) with prev. cycle
                        -----      --------------------        ------       --------------------------
 A
              11        1.000     -0.47034491370457E+00       -12.799              -1.04E-06
              12        1.000     -0.43573801354552E+00       -11.857              -5.44E-07
              13        1.000     -0.43313601800736E+00       -11.786              -2.37E-06
              14        1.000     -0.38903681917589E+00       -10.586              -2.43E-06
              15        1.000     -0.37439881649152E+00       -10.188               6.47E-06
              16        1.000     -0.37076942722375E+00       -10.089               2.50E-06
              17        1.000     -0.30925208583686E+00        -8.415              -3.45E-06
              18        1.000     -0.26503781702577E+00        -7.212              -9.39E-07
              19        1.000     -0.23758911568410E+00        -6.465               8.62E-06
              20        1.000     -0.23095637853900E+00        -6.285               6.62E-07
              21        0.000     -0.16163995471007E-01        -0.440
              22        0.000     -0.83311453897667E-02        -0.227
              23        0.000      0.13185772837829E-01         0.359
              24        0.000      0.25795269249793E-01         0.702
              25        0.000      0.40782351580554E-01         1.110
              26        0.000      0.49614012913109E-01         1.350
              27        0.000      0.68374911426572E-01         1.861
              28        0.000      0.11542746147638E+00         3.141
              29        0.000      0.14071460033743E+00         3.829
              30        0.000      0.14318133121828E+00         3.896
  
 HOMO :       20 A                -0.23095637853900E+00
 LUMO :       21 A                -0.16163995471007E-01
  


                                   ***** SPIN 2 *****

 Scaled ZORA Orbital Energies, per Irrep and Spin:
 =================================================
                        Occup              E (au)              E (eV)       Diff (eV) with prev. cycle
                        -----      --------------------        ------       --------------------------
 A
              10        1.000     -0.51352154820783E+00       -13.974              -2.89E-06
              11        1.000     -0.46416319095769E+00       -12.631              -9.96E-07
              12        1.000     -0.43216317475602E+00       -11.760              -7.27E-07
              13        1.000     -0.43099180484308E+00       -11.728              -2.66E-06
              14        1.000     -0.38486926592777E+00       -10.473              -2.56E-06
              15        1.000     -0.37000525260172E+00       -10.068               6.91E-06
              16        1.000     -0.36052043576074E+00        -9.810               2.11E-06
              17        1.000     -0.30815424872996E+00        -8.385              -3.39E-06
              18        1.000     -0.25651678329528E+00        -6.980              -1.10E-07
              19        1.000     -0.23173085133225E+00        -6.306               8.81E-06
              20        0.000     -0.17189719415633E+00        -4.678
              21        0.000     -0.14722937948072E-01        -0.401
              22        0.000      0.81516461858269E-02         0.222
              23        0.000      0.15122341758628E-01         0.411
              24        0.000      0.26138158135076E-01         0.711
              25        0.000      0.42107567512450E-01         1.146
              26        0.000      0.50265418081506E-01         1.368
              27        0.000      0.69819304300636E-01         1.900
              28        0.000      0.11660044824633E+00         3.173
              29        0.000      0.14235975950072E+00         3.874
  
 HOMO :       19 A                -0.23173085133225E+00
 LUMO :       20 A                -0.17189719415633E+00
  


 Orbital Energies, both Spins
 ========================================

 Irrep        no.  (spin)   Occup              E (au)                E (eV)
 ---------------------------------------------------------------------------
 A             1     A       1.00       -0.18833105648616E+02      -512.4749
 A             1      B      1.00       -0.18832941227906E+02      -512.4704
 A             2     A       1.00       -0.18782227820711E+02      -511.0904
 A             2      B      1.00       -0.18776954116640E+02      -510.9469
 A             3      B      1.00       -0.10044535495084E+02      -273.3257
 A             3     A       1.00       -0.10043520549148E+02      -273.2981
 A             4     A       1.00       -0.99826040895330E+01      -271.6405
 A             4      B      1.00       -0.99825923524344E+01      -271.6402
 A             5     A       1.00       -0.99686429903807E+01      -271.2606
 A             5      B      1.00       -0.99578089833800E+01      -270.9658
 A             6     A       1.00       -0.99826107007114E+00       -27.1641
 A             6      B      1.00       -0.99583058442409E+00       -27.0979
 A             7     A       1.00       -0.92711791941587E+00       -25.2282
 A             7      B      1.00       -0.92070346391145E+00       -25.0536
 A             8     A       1.00       -0.68933159701296E+00       -18.7577
 A             8      B      1.00       -0.67048925608469E+00       -18.2449
 A             9     A       1.00       -0.65787048896554E+00       -17.9016
 A             9      B      1.00       -0.65394523001981E+00       -17.7948
 A            10     A       1.00       -0.51665477505339E+00       -14.0589
 A            10      B      1.00       -0.51352154820783E+00       -13.9736
 A            11     A       1.00       -0.47034491370457E+00       -12.7987
 A            11      B      1.00       -0.46416319095769E+00       -12.6305
 A            12     A       1.00       -0.43573801354552E+00       -11.8570
 A            13     A       1.00       -0.43313601800736E+00       -11.7862
 A            12      B      1.00       -0.43216317475602E+00       -11.7598
 A            13      B      1.00       -0.43099180484308E+00       -11.7279
 A            14     A       1.00       -0.38903681917589E+00       -10.5862
 A            14      B      1.00       -0.38486926592777E+00       -10.4728
 A            15     A       1.00       -0.37439881649152E+00       -10.1879
 A            16     A       1.00       -0.37076942722375E+00       -10.0891
 A            15      B      1.00       -0.37000525260172E+00       -10.0684
 A            16      B      1.00       -0.36052043576074E+00        -9.8103
 A            17     A       1.00       -0.30925208583686E+00        -8.4152
 A            17      B      1.00       -0.30815424872996E+00        -8.3853
 A            18     A       1.00       -0.26503781702577E+00        -7.2120
 A            18      B      1.00       -0.25651678329528E+00        -6.9802
 A            19     A       1.00       -0.23758911568410E+00        -6.4651
 A            19      B      1.00       -0.23173085133225E+00        -6.3057
 A            20     A       1.00       -0.23095637853900E+00        -6.2846
 A            20      B      0.00       -0.17189719415633E+00        -4.6776
 A            21     A       0.00       -0.16163995471007E-01        -0.4398
 A            21      B      0.00       -0.14722937948072E-01        -0.4006
 A            22     A       0.00       -0.83311453897667E-02        -0.2267
 A            22      B      0.00        0.81516461858269E-02         0.2218
 A            23     A       0.00        0.13185772837829E-01         0.3588
 A            23      B      0.00        0.15122341758628E-01         0.4115
 A            24     A       0.00        0.25795269249793E-01         0.7019
 A            24      B      0.00        0.26138158135076E-01         0.7113
 A            25     A       0.00        0.40782351580554E-01         1.1097
 A            25      B      0.00        0.42107567512450E-01         1.1458
 A            26     A       0.00        0.49614012913109E-01         1.3501
 A            26      B      0.00        0.50265418081506E-01         1.3678
 A            27     A       0.00        0.68374911426572E-01         1.8606
 A            27      B      0.00        0.69819304300636E-01         1.8999
 A            28     A       0.00        0.11542746147638E+00         3.1409
 A            28      B      0.00        0.11660044824633E+00         3.1729
 A            29     A       0.00        0.14071460033743E+00         3.8290
 A            29      B      0.00        0.14235975950072E+00         3.8738
 A            30     A       0.00        0.14318133121828E+00         3.8962
 A            30      B      0.00        0.14332934222427E+00         3.9002
 A            31     A       0.00        0.16643868471984E+00         4.5290
 A            32     A       0.00        0.17509932706002E+00         4.7647
 A            31      B      0.00        0.18157263777700E+00         4.9408
 A            32      B      0.00        0.18569742972862E+00         5.0531
 A            33     A       0.00        0.20789869444784E+00         5.6572
 A            33      B      0.00        0.20867636345021E+00         5.6784
 A            34     A       0.00        0.21400658396116E+00         5.8234
 A            34      B      0.00        0.22468832759639E+00         6.1141
 A            35     A       0.00        0.24679277052349E+00         6.7156
 A            35      B      0.00        0.24851645750495E+00         6.7625
 A            36     A       0.00        0.25387133456486E+00         6.9082
 A            36      B      0.00        0.26673342722514E+00         7.2582
 A            37     A       0.00        0.27168333580855E+00         7.3929
 A            37      B      0.00        0.27323763001302E+00         7.4352
 A            38     A       0.00        0.31235036461057E+00         8.4995
 A            38      B      0.00        0.31708985177792E+00         8.6285
 A            39     A       0.00        0.34586832492288E+00         9.4116
 A            39      B      0.00        0.34909595846583E+00         9.4994
 A            40     A       0.00        0.35808143004495E+00         9.7439
 A            40      B      0.00        0.36124673348944E+00         9.8300
 A            41     A       0.00        0.36739562907819E+00         9.9973
 A            41      B      0.00        0.36835228783761E+00        10.0234
 A            42     A       0.00        0.37940819236919E+00        10.3242
 A            42      B      0.00        0.38465735261392E+00        10.4671
 A            43     A       0.00        0.39601345525795E+00        10.7761
 A            43      B      0.00        0.39828277266889E+00        10.8378
 A            44     A       0.00        0.41698518787492E+00        11.3467
 A            44      B      0.00        0.42146940230026E+00        11.4688
 A            45     A       0.00        0.46490242286204E+00        12.6506
 A            45      B      0.00        0.46827101901595E+00        12.7423
 A            46     A       0.00        0.52325789958074E+00        14.2386
 A            46      B      0.00        0.53071126978781E+00        14.4414
 A            47     A       0.00        0.54114208764658E+00        14.7252
 A            47      B      0.00        0.54311113053508E+00        14.7788
 A            48     A       0.00        0.59525307991836E+00        16.1977
 A            48      B      0.00        0.60038723212672E+00        16.3374
 A            49     A       0.00        0.60200945859051E+00        16.3815
 A            49      B      0.00        0.60921408501379E+00        16.5776
 A            50     A       0.00        0.62597125618942E+00        17.0335
 A            51     A       0.00        0.63490796662579E+00        17.2767
 A            50      B      0.00        0.63720815501631E+00        17.3393
 A            51      B      0.00        0.64008507789555E+00        17.4176
 A            52     A       0.00        0.66846477279580E+00        18.1899
 A            52      B      0.00        0.67107299432208E+00        18.2608
 A            53     A       0.00        0.70015856944684E+00        19.0523
 A            53      B      0.00        0.70470758325276E+00        19.1761
 A            54     A       0.00        0.79891705572101E+00        21.7396
 A            54      B      0.00        0.80210356483711E+00        21.8263
 A            55     A       0.00        0.80849284398275E+00        22.0002
 A            55      B      0.00        0.81123248897320E+00        22.0748
 A            56     A       0.00        0.83669271483717E+00        22.7676
 A            56      B      0.00        0.84344705857186E+00        22.9514
 A            57     A       0.00        0.85708518562672E+00        23.3225
 A            57      B      0.00        0.85846824396280E+00        23.3601
 A            58     A       0.00        0.90906386330517E+00        24.7369
 A            58      B      0.00        0.91179982144409E+00        24.8113
 A            59     A       0.00        0.91646244234281E+00        24.9382
 A            59      B      0.00        0.92491594376860E+00        25.1682
 A            60     A       0.00        0.93352449082168E+00        25.4025
 A            60      B      0.00        0.93456434831485E+00        25.4308
 A            61     A       0.00        0.95741820345373E+00        26.0527
 A            61      B      0.00        0.95991761551815E+00        26.1207
 A            62     A       0.00        0.99237656837420E+00        27.0039
 A            62      B      0.00        0.99628648067425E+00        27.1103
 A            63     A       0.00        0.10396320396663E+01        28.2898
 A            63      B      0.00        0.10443254375722E+01        28.4175
 A            64     A       0.00        0.10530241192509E+01        28.6542
 A            64      B      0.00        0.10557582587646E+01        28.7286
 A            65     A       0.00        0.10557883970691E+01        28.7295
 A            65      B      0.00        0.10605727299941E+01        28.8597
[...]
       3.874  0.00    29 A         18.92%     2 P:y             4.589  0.00     2 C
                                   18.48%     2 P:y             4.589  0.00     3 C
                                   10.73%     1 P:x            -5.239  0.67     3 C
                                    8.62%     2 P:z             4.589  0.00     2 C
                                   -7.91%     2 P:y             9.437  0.00     4 O
                                    7.86%     1 S              -6.532  1.00     7 H
                                    5.54%     2 S             -13.620  2.00     2 C
                                    5.48%     1 S              -6.532  1.00     8 H
                                    5.11%     1 P:z            -5.239  0.67     1 C
                                    4.67%     1 P:y            -5.239  0.67     2 C
                                    4.41%     1 P:z            11.051  0.00     6 H
                                    3.70%     1 P:x            11.051  0.00     6 H
                                   -3.61%     3 S              21.524  0.00     5 O
                                    3.39%     1 S              -6.532  1.00     9 H
                                    3.37%     2 S               2.394  0.00     6 H
                                    2.81%     2 P:z             4.589  0.00     3 C
                                   -2.78%     1 S              -6.532  1.00     6 H
                                    2.50%     1 P:z            11.051  0.00     9 H
                                   -2.00%     3 S              40.869  0.00    10 H
                                   -1.97%     2 S               2.394  0.00     9 H
                                    1.92%     1 P:y            -9.020  1.33     4 O
                                   -1.85%     3 S              10.158  0.00     1 C
                                   -1.78%     1 S              -6.532  1.00    10 H
                                    1.77%     1 P:y            11.051  0.00     7 H
                                    1.53%     2 P:y             4.589  0.00     1 C
                                    1.45%     1 P:x            11.051  0.00     7 H
                                    1.27%     2 S             -13.620  2.00     1 C
                                    1.20%     2 P:x             4.589  0.00     1 C
                                    1.04%     1 P:x            -5.239  0.67     1 C
       3.900  0.00    30 A         24.01%     2 P:z             4.589  0.00     3 C
                                   21.09%     2 P:x             4.589  0.00     3 C
                                   17.36%     1 P:z            -5.239  0.67     3 C
                                   15.21%     1 S              -6.532  1.00    10 H
                                   14.97%     1 P:y            -5.239  0.67     3 C
                                  -13.87%     2 S               2.394  0.00    10 H
                                  -11.86%     2 S               2.394  0.00     9 H
                                   11.57%     1 P:x            -5.239  0.67     3 C
                                    9.21%     1 S              -6.532  1.00     9 H
                                    9.18%     2 P:y             4.589  0.00     3 C
                                    8.79%     2 P:z             4.589  0.00     2 C
                                   -6.16%     2 P:x             9.437  0.00     4 O
                                    5.41%     2 P:x             4.589  0.00     2 C
                                   -5.07%     3 S              40.869  0.00     9 H
                                   -4.45%     2 P:z             9.437  0.00     4 O
                                   -2.46%     3 S              40.869  0.00    10 H
                                    1.81%     1 P:z            11.051  0.00    10 H
                                    1.59%     1 P:z            -5.239  0.67     2 C
                                    1.46%     1 P:y            11.051  0.00     8 H
                                   -1.33%     2 P:y             9.437  0.00     4 O
                                    1.31%     1 P:x            -5.239  0.67     2 C
                                    1.25%     1 P:z            11.051  0.00     6 H
                                    1.02%     1 P:x            -9.020  1.33     4 O
       4.941  0.00    31 A         30.77%     2 S             -13.620  2.00     2 C
                                   25.74%     1 P:z            -5.239  0.67     2 C
                                   12.12%     1 P:x            -5.239  0.67     2 C
                                  -11.86%     2 P:x             9.437  0.00     4 O
                                   10.95%     1 P:z            -9.020  1.33     4 O
                                   10.81%     2 P:z             4.589  0.00     2 C
                                    9.62%     2 S               2.394  0.00     7 H
                                    9.39%     1 P:x            -9.020  1.33     4 O
                                   -7.33%     3 S              10.158  0.00     2 C
                                    6.10%     2 P:y             4.589  0.00     3 C
                                    4.69%     2 P:z             4.589  0.00     3 C
                                   -4.62%     2 P:z             9.437  0.00     4 O
                                    4.06%     2 S             -23.838  2.00     4 O
                                   -3.81%     3 S              21.524  0.00     4 O
                                   -3.79%     2 P:z             9.437  0.00     5 O
                                   -3.73%     2 P:x             4.589  0.00     2 C
                                    3.50%     2 P:y             4.589  0.00     2 C
                                    2.66%     1 S              -6.532  1.00     7 H
                                    2.32%     1 P:z            -9.020  1.33     5 O
                                   -2.00%     2 S               2.394  0.00    10 H
                                    1.86%     1 P:z            -5.239  0.67     3 C
                                   -1.81%     2 P:y             9.437  0.00     4 O
                                    1.72%     2 P:z             4.589  0.00     1 C
                                   -1.41%     2 S               2.394  0.00     9 H
                                    1.39%     2 S               2.394  0.00     8 H
                                   -1.31%     2 S               2.394  0.00     6 H
                                    1.31%     1 P:z            11.051  0.00     7 H
                                    1.20%     1 P:x            -9.020  1.33     5 O
                                   -1.15%     2 P:x             9.437  0.00     5 O
                                    1.07%     2 S             -13.620  2.00     1 C
                                   -1.04%     1 S              -6.532  1.00     8 H
                                   -1.02%     3 S              21.524  0.00     5 O

 Energy gradients wrt nuclear displacements
 ==========================================

     Atom      Cartesian (a.u./angstrom)
                 X         Y         Z
 ----------------------------------------
     1 C    -0.000028 -0.000298  0.000566
     2 C    -0.000493  0.000268 -0.000017
     3 O    -0.000081  0.000562  0.000083
     4 C     0.000264 -0.000469 -0.000216
     5 O     0.000603 -0.000603 -0.000074
     6 H    -0.000078  0.000159 -0.000121
     7 H    -0.000051  0.000191 -0.000112
     8 H    -0.000119  0.000002 -0.000045
     9 H    -0.000008  0.000092 -0.000066
    10 H    -0.000008  0.000096  0.000004
 ----------------------------------------



 =======================================================================
 Electrostatic potential at the Nuclei due to electrons and other nuclei
 =======================================================================
  
         Atom                  Potential
         ----                  ---------
     1)   C                  14.74954052
     2)   C                  14.66604646
     3)   O                  22.36092846
     4)   C                  14.72434702
     5)   O                  22.41824112
     6)   H                   1.06699790
     7)   H                   1.07388488
     8)   H                   1.09094620
     9)   H                   1.08951462
    10)   H                   1.08981982
 Mulliken charges used for AMS results%charges...


    =====================
     CALCULATION RESULTS
    =====================

Energy (hartree)            -2.01611163

Gradients (hartree/bohr)
  Index   Atom            d/dx            d/dy            d/dz
      1      C   -0.0000150374   -0.0001578310    0.0002992855
      2      C   -0.0002610008    0.0001420538   -0.0000088988
      3      O   -0.0000430937    0.0002972013    0.0000438973
      4      C    0.0001395831   -0.0002482263   -0.0001142585
      5      O    0.0003190785   -0.0003189205   -0.0000394135
      6      H   -0.0000411316    0.0000842573   -0.0000641823
      7      H   -0.0000269763    0.0001009922   -0.0000592109
      8      H   -0.0000627792    0.0000012477   -0.0000239944
      9      H   -0.0000043016    0.0000485202   -0.0000351128
     10      H   -0.0000043410    0.0000507053    0.0000018886


--------------
Atomic charges
--------------
  Index   Atom    Charge
      1      C    0.3521
      2      C    0.6149
      3      O   -0.5095
      4      C    0.9718
      5      O   -0.4976
      6      H   -0.1628
      7      H   -0.1413
      8      H   -0.2372
      9      H   -0.1953
     10      H   -0.1950


Dipole moment vector    (Debye):    -2.40436252    3.62717921   -1.01509469
              magnitude (Debye):     4.46853504


-----------------------
Molecular orbitals info
-----------------------
n orbitals:              185
n spin:                    2

Note: only printing virtual orbitals with
      energy smaller than HOMO + 100. eV

                     spin-alpha   spin-beta
HOMO (eV):              -6.2846     -6.3057
LUMO (eV):              -0.4398     -4.6776
HOMO-LUMO gap (eV):      5.8448      1.6282

Smallest gap (eV):       1.6071

          |======= spin-alpha =======|       |======= spin-beta ========|

   Index   Energy (eV)    Occupation          Energy (eV)    Occupation
     120       93.3415         0.000              93.4317         0.000       
     119       92.9820         0.000              93.2443         0.000       
     118       92.6419         0.000              92.9352         0.000       
     117       91.9815         0.000              92.1157         0.000       
     116       90.8112         0.000              91.1586         0.000       
     115       89.2347         0.000              89.2897         0.000       
     114       87.7377         0.000              87.9916         0.000       
     113       87.6512         0.000              87.8395         0.000       
     112       85.8386         0.000              85.9160         0.000       
     111       82.9734         0.000              83.1015         0.000       
     110       81.5590         0.000              81.9882         0.000       
     109       81.2320         0.000              81.3757         0.000       
     108       80.2149         0.000              80.3265         0.000       
     107       77.6721         0.000              77.7065         0.000       
     106       77.3246         0.000              77.3582         0.000       
     105       76.6564         0.000              76.6425         0.000       
     104       76.1092         0.000              76.1494         0.000       
     103       75.9160         0.000              75.9995         0.000       
     102       74.5891         0.000              74.9281         0.000       
     101       73.2266         0.000              73.3167         0.000       
     100       72.6971         0.000              72.7818         0.000       
      99       72.3039         0.000              72.3211         0.000       
      98       68.4496         0.000              68.5029         0.000       
      97       67.9848         0.000              68.2734         0.000       
      96       66.6666         0.000              66.7277         0.000       
      95       64.1611         0.000              64.2302         0.000       
      94       62.5828         0.000              63.1824         0.000       
      93       61.2007         0.000              61.3172         0.000       
      92       60.2635         0.000              60.4778         0.000       
      91       58.5306         0.000              58.6239         0.000       
      90       57.4490         0.000              57.6789         0.000       
      89       57.1129         0.000              57.5300         0.000       
      88       56.4524         0.000              56.5894         0.000       
      87       55.0170         0.000              55.0658         0.000       
      86       53.9471         0.000              54.0012         0.000       
      85       52.5685         0.000              52.9658         0.000       
      84       51.1775         0.000              51.2746         0.000       
      83       49.4404         0.000              49.4892         0.000       
      82       49.1713         0.000              49.2187         0.000       
      81       47.4280         0.000              47.7493         0.000       
      80       46.2222         0.000              46.3154         0.000       
      79       44.6154         0.000              44.7426         0.000       
      78       43.4190         0.000              44.4700         0.000       
      77       42.5040         0.000              42.5689         0.000       
      76       41.5280         0.000              41.7646         0.000       
      75       41.3148         0.000              41.5272         0.000       
      74       39.2849         0.000              39.3235         0.000       
      73       38.4408         0.000              38.5493         0.000       
      72       36.9262         0.000              37.0284         0.000       
      71       35.2984         0.000              35.4750         0.000       
      70       34.9758         0.000              35.2939         0.000       
      69       33.3039         0.000              33.4577         0.000       
      68       32.0955         0.000              32.3455         0.000       
      67       32.0490         0.000              32.2001         0.000       
      66       31.1339         0.000              31.3568         0.000       
      65       28.7295         0.000              28.8597         0.000       
      64       28.6542         0.000              28.7286         0.000       
      63       28.2898         0.000              28.4175         0.000       
      62       27.0039         0.000              27.1103         0.000       
      61       26.0527         0.000              26.1207         0.000       
      60       25.4025         0.000              25.4308         0.000       
      59       24.9382         0.000              25.1682         0.000       
      58       24.7369         0.000              24.8113         0.000       
      57       23.3225         0.000              23.3601         0.000       
      56       22.7676         0.000              22.9514         0.000       
      55       22.0002         0.000              22.0748         0.000       
      54       21.7396         0.000              21.8263         0.000       
      53       19.0523         0.000              19.1761         0.000       
      52       18.1899         0.000              18.2608         0.000       
      51       17.2767         0.000              17.4176         0.000       
      50       17.0335         0.000              17.3393         0.000       
      49       16.3815         0.000              16.5776         0.000       
      48       16.1977         0.000              16.3374         0.000       
      47       14.7252         0.000              14.7788         0.000       
      46       14.2386         0.000              14.4414         0.000       
      45       12.6506         0.000              12.7423         0.000       
      44       11.3467         0.000              11.4688         0.000       
      43       10.7761         0.000              10.8378         0.000       
      42       10.3242         0.000              10.4671         0.000       
      41        9.9973         0.000              10.0234         0.000       
      40        9.7439         0.000               9.8300         0.000       
      39        9.4116         0.000               9.4994         0.000       
      38        8.4995         0.000               8.6285         0.000       
      37        7.3929         0.000               7.4352         0.000       
      36        6.9082         0.000               7.2582         0.000       
      35        6.7156         0.000               6.7625         0.000       
      34        5.8234         0.000               6.1141         0.000       
      33        5.6572         0.000               5.6784         0.000       
      32        4.7647         0.000               5.0531         0.000       
      31        4.5290         0.000               4.9408         0.000       
      30        3.8962         0.000               3.9002         0.000       
      29        3.8290         0.000               3.8738         0.000       
      28        3.1409         0.000               3.1729         0.000       
      27        1.8606         0.000               1.8999         0.000       
      26        1.3501         0.000               1.3678         0.000       
      25        1.1097         0.000               1.1458         0.000       
      24        0.7019         0.000               0.7113         0.000       
      23        0.3588         0.000               0.4115         0.000       
      22       -0.2267         0.000               0.2218         0.000       
      21       -0.4398         0.000 < LUMO       -0.4006         0.000       
      20       -6.2846         1.000 < HOMO       -4.6776         0.000 < LUMO
      19       -6.4651         1.000              -6.3057         1.000 < HOMO
      18       -7.2120         1.000              -6.9802         1.000       
      17       -8.4152         1.000              -8.3853         1.000       
      16      -10.0891         1.000              -9.8103         1.000       
      15      -10.1879         1.000             -10.0684         1.000       
      14      -10.5862         1.000             -10.4728         1.000       
      13      -11.7862         1.000             -11.7279         1.000       
      12      -11.8570         1.000             -11.7598         1.000       
      11      -12.7987         1.000             -12.6305         1.000       
      10      -14.0589         1.000             -13.9736         1.000       
       9      -17.9016         1.000             -17.7948         1.000       
       8      -18.7577         1.000             -18.2449         1.000       
       7      -25.2282         1.000             -25.0536         1.000       
       6      -27.1641         1.000             -27.0979         1.000       
       5     -271.2606         1.000            -270.9658         1.000       
       4     -271.6405         1.000            -271.6402         1.000       
       3     -273.2981         1.000            -273.3257         1.000       
       2     -511.0904         1.000            -510.9469         1.000       
       1     -512.4749         1.000            -512.4704         1.000       

AMS application finished. Exiting.
NORMAL TERMINATION
     Total cpu time:     635.23
  Total system time:       3.39
 Total elapsed time:     641.70
