14
Coordinates from ORCA-job ts_scan Relaxed Surface Scan Step 1 E -73.020497382818
  C       1.398706      0.856280      0.620795
  C       1.557066     -0.081405     -0.294529
  F       2.664109     -0.161775     -1.023271
  O       0.727185     -1.038717     -0.689847
  C      -0.404784     -1.300438      0.115338
  C      -1.458704     -0.248295      0.052132
  C      -1.344749      0.897255     -0.592373
  H       0.498713      0.946935      1.197508
  H       2.221594      1.527106      0.809649
  H      -0.077880     -1.442281      1.149390
  H      -0.795812     -2.250899     -0.243179
  H      -2.353572     -0.471142      0.623406
  H      -2.156105      1.612957     -0.578875
  H      -0.475768      1.154416     -1.176011
>
14
Coordinates from ORCA-job ts_scan Relaxed Surface Scan Step 2 E -73.017724552627
  C       1.353007      0.872285      0.598391
  C       1.541366     -0.081826     -0.293938
  F       2.652321     -0.144701     -1.018779
  O       0.737104     -1.065421     -0.677425
  C      -0.406953     -1.321566      0.113150
  C      -1.440158     -0.249081      0.059201
  C      -1.298826      0.899018     -0.575096
  H       0.460876      0.948527      1.186457
  H       2.162692      1.563591      0.772542
  H      -0.091083     -1.483736      1.147915
  H      -0.808504     -2.260390     -0.263353
  H      -2.333329     -0.449767      0.640774
  H      -2.092254      1.634469     -0.546415
  H      -0.436258      1.138598     -1.173293
>
14
Coordinates from ORCA-job ts_scan Relaxed Surface Scan Step 3 E -73.013966203920
  C       1.306702      0.887489      0.577611
  C       1.525423     -0.081393     -0.291554
  F       2.637645     -0.124289     -1.016195
  O       0.747724     -1.090897     -0.662578
  C      -0.409742     -1.342306      0.110129
  C      -1.421633     -0.249685      0.065082
  C      -1.251753      0.899588     -0.560002
  H       0.426996      0.946536      1.183351
  H       2.102148      1.599712      0.735346
  H      -0.107632     -1.524295      1.145811
  H      -0.820031     -2.269554     -0.284886
  H      -2.309948     -0.425904      0.661580
  H      -2.024853      1.656069     -0.513608
  H      -0.401045      1.118927     -1.179954
>
14
Coordinates from ORCA-job ts_scan Relaxed Surface Scan Step 4 E -73.009074409510
  C       1.258568      0.903777      0.559927
  C       1.508795     -0.079202     -0.284917
  F       2.618936     -0.097428     -1.014333
  O       0.760573     -1.115607     -0.642290
  C      -0.414391     -1.364344      0.105239
  C      -1.402514     -0.249948      0.071298
  C      -1.202930      0.896938     -0.549568
  H       0.397888      0.942987      1.191335
  H       2.037951      1.638681      0.696326
  H      -0.131744     -1.571657      1.141626
  H      -0.831309     -2.277262     -0.315191
  H      -2.278397     -0.394404      0.693841
  H      -1.948625      1.679243     -0.479702
  H      -0.372800      1.088226     -1.203457
>
14
Coordinates from ORCA-job ts_scan Relaxed Surface Scan Step 5 E -73.002982572541
  C       1.208068      0.922107      0.546826
  C       1.491085     -0.074550     -0.272316
  F       2.593050     -0.061528     -1.015058
  O       0.776993     -1.140207     -0.612302
  C      -0.422021     -1.388594      0.098123
  C      -1.382856     -0.249998      0.078130
  C      -1.151271      0.889934     -0.545185
  H       0.376030      0.937368      1.214407
  H       1.967106      1.683647      0.653774
  H      -0.168035     -1.629820      1.134356
  H      -0.841568     -2.282610     -0.358612
  H      -2.234660     -0.352721      0.740700
  H      -1.857834      1.705062     -0.445569
  H      -0.354087      1.041909     -1.247143
>
14
Coordinates from ORCA-job ts_scan Relaxed Surface Scan Step 6 E -72.995759687530
  C       1.155266      0.945380      0.538651
  C       1.472564     -0.066703     -0.250910
  F       2.556481     -0.016225     -1.019737
  O       0.799742     -1.165895     -0.563255
  C      -0.434521     -1.416299      0.088743
  C      -1.362604     -0.250175      0.087370
  C      -1.095753      0.877210     -0.546830
  H       0.365388      0.932451      1.254694
  H       1.885372      1.740175      0.602620
  H      -0.225044     -1.708171      1.121263
  H      -0.849344     -2.281558     -0.424201
  H      -2.173103     -0.298972      0.805158
  H      -1.745994      1.733338     -0.412754
  H      -0.348451      0.975445     -1.310680
>
14
Coordinates from ORCA-job ts_scan Relaxed Surface Scan Step 7 E -72.987723307068
  C       1.103285      0.978723      0.529413
  C       1.456579     -0.057241     -0.217271
  F       2.510884      0.027200     -1.026035
  O       0.834459     -1.195883     -0.475992
  C      -0.454104     -1.448276      0.077545
  C      -1.342682     -0.252336      0.102950
  C      -1.038096      0.859113     -0.547703
  H       0.370604      0.942371      1.303750
  H       1.790801      1.813672      0.526887
  H      -0.316688     -1.819753      1.095112
  H      -0.848219     -2.263840     -0.525285
  H      -2.093860     -0.239671      0.883480
  H      -1.616668      1.759210     -0.379185
  H      -0.356294      0.896711     -1.377533
>
14
Coordinates from ORCA-job ts_scan Relaxed Surface Scan Step 8 E -72.990510578501
  C       1.108166      1.143161      0.409433
  C       1.420027     -0.107283      0.082495
  F       2.084502     -0.347147     -1.066985
  O       0.882163     -1.178343      0.599520
  C      -0.471238     -1.490383     -0.015958
  C      -1.310912     -0.314603      0.204685
  C      -1.000045      0.812397     -0.448496
  H       0.634094      1.332766      1.355219
  H       1.554241      1.967236     -0.127313
  H      -0.781836     -2.386553      0.506878
  H      -0.277680     -1.711644     -1.063012
  H      -1.895564     -0.270603      1.115004
  H      -1.450125      1.759166     -0.177034
  H      -0.495794      0.791831     -1.404305
>
14
Coordinates from ORCA-job ts_scan Relaxed Surface Scan Step 9 E -72.985085139237
  C       1.058012      1.141410      0.407456
  C       1.417081     -0.108907      0.087724
  F       2.062575     -0.316353     -1.081083
  O       0.905293     -1.179551      0.598016
  C      -0.499340     -1.497243     -0.021788
  C      -1.307801     -0.318289      0.198264
  C      -0.943726      0.811733     -0.443639
  H       0.632022      1.319898      1.378784
  H       1.487814      1.975048     -0.128500
  H      -0.793011     -2.387623      0.518873
  H      -0.280917     -1.724154     -1.061394
  H      -1.878186     -0.254878      1.116370
  H      -1.379253      1.766841     -0.178306
  H      -0.480565      0.772069     -1.420644
>
14
Coordinates from ORCA-job ts_scan Relaxed Surface Scan Step 10 E -73.021586046627
  C       1.030590      1.234508      0.426402
  C       1.759757      0.008115      0.152481
  F       2.280412      0.008140     -1.103027
  O       1.875097     -0.955519      0.829763
  C      -1.155433     -1.673653     -0.184416
  C      -1.315799     -0.432052      0.256990
  C      -0.811097      0.736634     -0.451271
  H       0.814197      1.380736      1.475240
  H       1.359512      2.109110     -0.117637
  H      -1.520129     -2.521863      0.377805
  H      -0.651444     -1.879369     -1.120593
  H      -1.809336     -0.259887      1.206208
  H      -1.342970      1.667045     -0.296472
  H      -0.513359      0.578054     -1.481340
>
14
Coordinates from ORCA-job ts_scan Relaxed Surface Scan Step 11 E -73.033847919342
  C       0.986007      1.226662      0.403914
  C       1.785837      0.024515      0.177843
  F       2.267310     -0.016050     -1.090118
  O       1.990065     -0.880642      0.909269
  C      -1.204737     -1.675985     -0.215850
  C      -1.283910     -0.444399      0.268172
  C      -0.762375      0.732477     -0.432113
  H       0.784928      1.397500      1.453026
  H       1.320069      2.098633     -0.143530
  H      -1.581830     -2.524024      0.338600
  H      -0.756592     -1.874849     -1.181731
  H      -1.725843     -0.280398      1.244296
  H      -1.325133      1.648392     -0.291464
  H      -0.493794      0.568168     -1.470182
>
14
Coordinates from ORCA-job ts_scan Relaxed Surface Scan Step 12 E -73.046493938487
  C       0.941735      1.217890      0.380660
  C       1.799950      0.038091      0.208110
  F       2.234586     -0.067698     -1.070961
  O       2.088222     -0.792633      0.995267
  C      -1.244670     -1.672991     -0.250835
  C      -1.246496     -0.457974      0.276196
  C      -0.714559      0.730220     -0.412351
  H       0.754440      1.420255      1.427625
  H       1.287693      2.082442     -0.173614
  H      -1.628115     -2.523886      0.295056
  H      -0.856304     -1.856032     -1.245433
  H      -1.632478     -0.311085      1.278865
  H      -1.309552      1.628511     -0.280429
  H      -0.474452      0.564889     -1.458021
