srun: Job 662084 step creation temporarily disabled, retrying (Requested nodes are busy)
srun: Job 662084 step creation still disabled, retrying (Requested nodes are busy)
srun: Job 662084 step creation still disabled, retrying (Requested nodes are busy)
srun: Job 662084 step creation still disabled, retrying (Requested nodes are busy)
srun: Job 662084 step creation still disabled, retrying (Requested nodes are busy)
srun: Job 662084 step creation still disabled, retrying (Requested nodes are busy)
srun: Job 662084 step creation still disabled, retrying (Requested nodes are busy)
srun: Job 662084 step creation still disabled, retrying (Requested nodes are busy)
srun: Job 662084 step creation still disabled, retrying (Requested nodes are busy)
srun: Job 662084 step creation still disabled, retrying (Requested nodes are busy)
srun: Job 662084 step creation still disabled, retrying (Requested nodes are busy)
srun: Job 662084 step creation still disabled, retrying (Requested nodes are busy)
srun: Job 662084 step creation still disabled, retrying (Requested nodes are busy)
srun: Job 662084 step creation still disabled, retrying (Requested nodes are busy)
srun: Job 662084 step creation still disabled, retrying (Requested nodes are busy)
srun: Job 662084 step creation still disabled, retrying (Requested nodes are busy)
srun: Job 662084 step creation still disabled, retrying (Requested nodes are busy)
srun: Job 662084 step creation still disabled, retrying (Requested nodes are busy)
srun: Job 662084 step creation still disabled, retrying (Requested nodes are busy)
srun: Job 662084 step creation still disabled, retrying (Requested nodes are busy)
srun: Job 662084 step creation still disabled, retrying (Requested nodes are busy)
srun: Job 662084 step creation still disabled, retrying (Requested nodes are busy)
srun: Job 662084 step creation still disabled, retrying (Requested nodes are busy)
srun: Job 662084 step creation still disabled, retrying (Requested nodes are busy)
srun: Job 662084 step creation still disabled, retrying (Requested nodes are busy)
srun: Step created for StepId=662084.22

 *******************************************************************************
 *                                                                             *
 *  --------------------------------                                           *
 *   Amsterdam Modeling Suite (AMS)              2026.103                      *
 *  --------------------------------                                           *
 *                                               r260501 2026-05-01 873454b5   *
 *                                                                             *
 *                                                                             *
 *                              =================                              *
 *                              |               |                              *
 *                              |     A M S     |                              *
 *                              |               |                              *
 *                              =================                              *
 *                                                                             *
 *                                                                             *
 *   Online information and documentation:  https://www.scm.com/support/       *
 *   E-mail:  support@scm.com   info@scm.com                                   *
 *                                                                             *
 *   Scientific publications using AMS results must be properly referenced     *
 *   See the User Manuals (or the web site) for recommended citations          *
 *   The terms and conditions of the End User License Agreement apply to       *
 *   the use of AMS, https://www.scm.com/license-terms/                        *
 *                                                                             *
 **********************  x86_64_linux_intel / intelmpi  ************************
 
 Licensed to: Jong-June Jeon / University of Seoul 2026-06-02 13:44:15
 SCM User ID: u30731
  
 AMS 2026.103  RunTime: Jun03-2026 01:42:45  ShM Nodes: 1  Procs: 1

 AMS jobname: c1_fragA_ts
 AMS jobid  : 208542046

 Start   directory: /gpfs/home1/yeseo1ee/projects/eda-asm-prediction/ADF_800/adf_outputs/batch_000/dipolar_000637/
 Results directory: /gpfs/home1/yeseo1ee/projects/eda-asm-prediction/ADF_800/adf_outputs/batch_000/dipolar_000637/c1_fragA_ts.results/
 Scratch directory: /tmp/amstmp_c1_fragA_ts_kid0.208542046/

 RNG seed: -2103378278 -1160966268 503300277 774761403 -566638903 2138598331 -483897660 -1524392883



                      ************************************************************************
                      *  ADF 2026.103  RunTime: Jun03-2026 01:42:45  ShM Nodes: 1  Procs: 1  *
                      ************************************************************************
  

       ****************************
       * SINGLE POINT CALCULATION *
       ****************************

--------
Geometry
--------
Formula: C4H3BrO2
Atoms
  Index Symbol   x (angstrom)   y (angstrom)   z (angstrom)
      1      C     0.04431000     0.89258000     0.48265000
      2     Br     1.38902000     1.43756000     1.55269000
      3      C    -1.07377000     0.86144000    -0.04122000
      4      C    -2.49085000     1.11685000    -0.24457000
      5      O    -3.32106000     0.94774000     0.62529000
      6      O    -2.76264000     1.52970000    -1.48199000
      7      C    -4.15228000     1.73008000    -1.79469000
      8      H    -4.58905000     2.49620000    -1.13894000
      9      H    -4.69881000     0.78338000    -1.67692000
     10      H    -4.17860000     2.06031000    -2.83896000

Total System Charge              0.00000


----------------
ADF Engine Input
----------------
 
   Basis
     Type TZ2P
     Core None
   End
   XC
     GGA BLYP
     Dispersion GRIMME3 BJDAMP
   End
   Symmetry NOSYM
   NumericalQuality Normal
   Unrestricted No
   SCF
     Iterations 200
     Converge 1.0e-6
   End
   Save TAPE21
 

 Title: *** (NO TITLE) ***

 *** adf ***



 ===========================
 A T T A C H E D   F I L E S
 ===========================
  



 ===============================
 M O D E L   P A R A M E T E R S
 ===============================
  
 DENSITY FUNCTIONAL POTENTIAL (scf)
    LDA:                               Exchange only                           == Not Default ==
    Gradient Corrections:              Becke88 LYP                             == Not Default ==

 SPIN  (restricted / unrestr.)
    Molecule:                          Restricted                               
    Fragments:                         Restricted                               

 OTHER ASPECTS
    Relativistic Corrections:          scalar (ZORA,MAPA)                       

    Nuclear Charge Density Model:      Point Charge Nuclei                      
    Core Treatment:                    Frozen Orbital(s)                        

    Hyperfine or Zeeman Interaction:   ---                                      

 Settings for Grimme D3 dispersion correction

      damping                        BJ
      s6                          1.000
      s8                          2.700
      a1                          0.430
      a2                          4.236

 Other (technical) parameters

      alpha                      14.000
      version                         4
 


 Fragment File(s)
 ----------------
 C:
         file : /gpfs/home1/yeseo1ee/projects/eda-asm-prediction/ADF_800/adf_outputs/batch_000/dipolar_000637/c1_fragA_ts.results/t21.50BA88D5.C
         jobid: 0
         title: Carbon (TZ2P)
 Br:
         file : /gpfs/home1/yeseo1ee/projects/eda-asm-prediction/ADF_800/adf_outputs/batch_000/dipolar_000637/c1_fragA_ts.results/t21.42F58B50.Br
         jobid: 0
         title: Bromine (TZ2P)
 O:
         file : /gpfs/home1/yeseo1ee/projects/eda-asm-prediction/ADF_800/adf_outputs/batch_000/dipolar_000637/c1_fragA_ts.results/t21.6E90ABAE.O
         jobid: 0
         title: Oxygen (TZ2P)
 H:
         file : /gpfs/home1/yeseo1ee/projects/eda-asm-prediction/ADF_800/adf_outputs/batch_000/dipolar_000637/c1_fragA_ts.results/t21.6F35CCAB.H
         jobid: 0
         title: Hydrogen (TZ2P)



 ===============
 G E O M E T R Y  ***  3D  Molecule  ***
 ===============
  

 ATOMS
 =====                            X Y Z                    CHARGE
                                (Angstrom)             Nucl     +Core       At.Mass
                       --------------------------    ----------------       -------
    1  C               0.0443    0.8926    0.4827      6.00      6.00       12.0000
    2  Br              1.3890    1.4376    1.5527     35.00     35.00       78.9183
    3  C              -1.0738    0.8614   -0.0412      6.00      6.00       12.0000
    4  C              -2.4909    1.1168   -0.2446      6.00      6.00       12.0000
    5  O              -3.3211    0.9477    0.6253      8.00      8.00       15.9949
    6  O              -2.7626    1.5297   -1.4820      8.00      8.00       15.9949
    7  C              -4.1523    1.7301   -1.7947      6.00      6.00       12.0000
    8  H              -4.5891    2.4962   -1.1389      1.00      1.00        1.0078
    9  H              -4.6988    0.7834   -1.6769      1.00      1.00        1.0078
   10  H              -4.1786    2.0603   -2.8390      1.00      1.00        1.0078


 FRAGMENTS
 =========                                     Atoms in this Fragment     Cart. coord.s (Angstrom)
                                               -------------------------------------------------------
    1  C                                                 1  C            0.0443    0.8926    0.4827
    2  C                                                 3  C           -1.0738    0.8614   -0.0412
    3  C                                                 4  C           -2.4909    1.1168   -0.2446
    4  C                                                 7  C           -4.1523    1.7301   -1.7947
    5  Br                                                2  Br           1.3890    1.4376    1.5527
    6  O                                                 5  O           -3.3211    0.9477    0.6253
    7  O                                                 6  O           -2.7626    1.5297   -1.4820
    8  H                                                 8  H           -4.5891    2.4962   -1.1389
    9  H                                                 9  H           -4.6988    0.7834   -1.6769
   10  H                                                10  H           -4.1786    2.0603   -2.8390


 Interatomic Distance Matrix (Angstrom)
 --------------------------------------

   1)     0.000
   2)     1.803   0.000
   3)     1.235   2.990   0.000
   4)     2.647   4.288   1.454   0.000
   5)     3.369   4.825   2.346   1.214   0.000
   6)     3.485   5.143   2.318   1.332   2.256   0.000
   7)     4.848   6.480   3.648   2.354   2.676   1.438   0.000
   8)     5.164   6.641   4.029   2.666   2.668   2.095   1.099   0.000
   9)     5.213   6.922   3.978   2.653   2.688   2.084   1.099   1.799   0.000
  10)     5.498   7.118   4.348   3.236   3.738   2.032   1.096   1.802   1.803   0.000

 Min. Distance =    1.0956
 Max. Distance =    7.1185



 =====================================
 S Y M M E T R Y ,   E L E C T R O N S
 =====================================
  
 Symmetry: NOSYM

 Irreducible Representations, including subspecies
 -------------------------------------------------
 A


 Configuration of Valence Electrons
 ==================================
 ( determined in the SCF procedure )

 Total:   78

 Net Charge: 0 (Nuclei minus Electrons)

 Aufbau principle for MO occupations will be applied through SCF cycle no.     100
 Thereafter, the program will assign electrons to MOs that are spatially
 similar to the occupied MOs in a "reference" cycle ("KeepOrbitals").
 The reference cycle is always the PREVIOUS cycle: it will evolve with
 the SCF procedure.
 ***************************************************************************************************



                                      ****************************************
                                      *  B U I L D : (Fragments, Functions)  *
                                      ****************************************
  



 =======
 S F O s  ***  (Symmetrized Fragment Orbitals)  ***
 =======
  
 SFOs are linear combinations of (valence) Fragment Orbitals (FOs), such that the SFOs transform as the
 irreducible representations of the (molecular) symmetry group. Each SFO is therefore characterized by
 an irrep of the molecule and by a few (or only one) generating FOs.
 The SFOs constitute a symmetry-adapted basis for the Fock matrix. The MO eigenvector coefficients in
 this basis provide a direct interpretation of the MOs in terms of Frontier Orbital Theory.

 The SFOs are combined with auxiliary Core Functions (CFs) to ensure orthogonalization on the (frozen)
 Core Orbitals (COs). The Core-orthogonalized SFOs (CSFOs) constitute the true Fock basis.

 The FOs, and hence also the (C)SFOs are combinations of the elementary basis functions (BAS). The basis
 functions that participate in the description of the SFOs depend on the irrep. The indices of the
 involved functions are printed below for each irrep.
 (The complete list of primitive basis functions is printed in another section)

 Total nr. of (C)SFOs (summation over all irreps) :   245

 NOTE: a (C)SFO that is defined as a combination of more than one FO is usually NOT normalized.



                                       === A ===
 Nr. of SFOs :  245
 Cartesian basis functions that participate in this irrep (total number =   279) :
      1     2     3     4     5     6     9    12     7    10
     13     8    11    14    15    16    17    18    19    20
     21    22    23    24    25    26    27    28    29    30
     31    32    33    34    35    36    39    42    37    40
     43    38    41    44    45    46    47    48    49    50
     51    52    53    54    55    56    57    58    59    60
     61    62    63    64    65    66    69    72    67    70
     73    68    71    74    75    76    77    78    79    80
     81    82    83    84    85    86    87    88    89    90
     91    92    93    94    95    96    99   102    97   100
    103    98   101   104   105   106   107   108   109   110
    111   112   113   114   115   116   117   118   119   120
    121   122   123   130   131   156   157   158   124   127
    132   135   159   162   165   125   128   133   136   160
    163   166   126   129   134   137   161   164   167   138
    144   150   168   139   145   151   169   140   146   152
    170   141   147   153   171   142   148   154   172   143
    149   155   173   174   175   176   177   178   179   180
    181   182   183   184   185   186   187   188   189   192
    195   190   193   196   191   194   197   198   199   200
    201   202   203   204   205   206   207   208   209   210
    211   212   213   214   215   216   217   218   219   222
    225   220   223   226   221   224   227   228   229   230
    231   232   233   234   235   236   237   238   239   240
    241   242   243   244   245   246   247   248   249   250
    251   252   253   254   255   256   257   258   259   260
    261   262   263   264   265   266   267   268   269   270
    271   272   273   274   275   276   277   278   279

    SFO  (index         Fragment          Generating    Expansion in Fragment Orbitals
  indx  incl.CFs)   Occup   Orb.Energy   FragmentType  Coeff.   Orbital     on Fragment
 --------------------------------------------------------------------------------------
     1       1      2.000     -10.066 au  C             1.00      1 S               1
                        (    -273.921 eV)
     2       2      2.000      -0.501 au  C             1.00      2 S               1
                        (     -13.620 eV)
     3       3       --         0.373 au  C             1.00      3 S               1
                        (      10.158 eV)
     4       4       --         5.405 au  C             1.00      4 S               1
                        (     147.073 eV)
     5       5       --        49.848 au  C             1.00      5 S               1
                        (    1356.422 eV)
     6       6      0.667      -0.193 au  C             1.00      1 P:x             1
                        (      -5.239 eV)
     7       7       --         0.169 au  C             1.00      2 P:x             1
                        (       4.589 eV)
     8       8       --         2.013 au  C             1.00      3 P:x             1
                        (      54.789 eV)
     9       9      0.667      -0.193 au  C             1.00      1 P:y             1
                        (      -5.239 eV)
    10      10       --         0.169 au  C             1.00      2 P:y             1
                        (       4.589 eV)
    11      11       --         2.013 au  C             1.00      3 P:y             1
                        (      54.789 eV)
    12      12      0.667      -0.193 au  C             1.00      1 P:z             1
                        (      -5.239 eV)
    13      13       --         0.169 au  C             1.00      2 P:z             1
                        (       4.589 eV)
    14      14       --         2.013 au  C             1.00      3 P:z             1
                        (      54.789 eV)
    15      15       --         1.243 au  C             1.00      1 D:z2            1
                        (      33.824 eV)
    16      16       --         1.243 au  C             1.00      1 D:x2-y2         1
                        (      33.824 eV)
    17      17       --         1.243 au  C             1.00      1 D:xy            1
                        (      33.824 eV)
    18      18       --         1.243 au  C             1.00      1 D:xz            1
                        (      33.824 eV)
    19      19       --         1.243 au  C             1.00      1 D:yz            1
                        (      33.824 eV)
    20      20       --         4.016 au  C             1.00      1 F:z3            1
                        (     109.271 eV)
    21      21       --         4.016 au  C             1.00      1 F:z             1
                        (     109.271 eV)
    22      22       --         4.016 au  C             1.00      1 F:xyz           1
                        (     109.271 eV)
    23      23       --         4.016 au  C             1.00      1 F:z2x           1
                        (     109.271 eV)
    24      24       --         4.016 au  C             1.00      1 F:z2y           1
                        (     109.271 eV)
    25      25       --         4.016 au  C             1.00      1 F:x             1
                        (     109.271 eV)
    26      26       --         4.016 au  C             1.00      1 F:y             1
                        (     109.271 eV)
    27      27      2.000     -10.066 au  C             1.00      1 S               2
                        (    -273.921 eV)
    28      28      2.000      -0.501 au  C             1.00      2 S               2
                        (     -13.620 eV)
    29      29       --         0.373 au  C             1.00      3 S               2
                        (      10.158 eV)
    30      30       --         5.405 au  C             1.00      4 S               2
                        (     147.073 eV)
    31      31       --        49.848 au  C             1.00      5 S               2
                        (    1356.422 eV)
    32      32      0.667      -0.193 au  C             1.00      1 P:x             2
                        (      -5.239 eV)
    33      33       --         0.169 au  C             1.00      2 P:x             2
                        (       4.589 eV)
    34      34       --         2.013 au  C             1.00      3 P:x             2
                        (      54.789 eV)
    35      35      0.667      -0.193 au  C             1.00      1 P:y             2
                        (      -5.239 eV)
    36      36       --         0.169 au  C             1.00      2 P:y             2
                        (       4.589 eV)
    37      37       --         2.013 au  C             1.00      3 P:y             2
                        (      54.789 eV)
    38      38      0.667      -0.193 au  C             1.00      1 P:z             2
                        (      -5.239 eV)
    39      39       --         0.169 au  C             1.00      2 P:z             2
                        (       4.589 eV)
    40      40       --         2.013 au  C             1.00      3 P:z             2
                        (      54.789 eV)
    41      41       --         1.243 au  C             1.00      1 D:z2            2
                        (      33.824 eV)
    42      42       --         1.243 au  C             1.00      1 D:x2-y2         2
                        (      33.824 eV)
    43      43       --         1.243 au  C             1.00      1 D:xy            2
                        (      33.824 eV)
    44      44       --         1.243 au  C             1.00      1 D:xz            2
                        (      33.824 eV)
    45      45       --         1.243 au  C             1.00      1 D:yz            2
                        (      33.824 eV)
    46      46       --         4.016 au  C             1.00      1 F:z3            2
                        (     109.271 eV)
    47      47       --         4.016 au  C             1.00      1 F:z             2
                        (     109.271 eV)
    48      48       --         4.016 au  C             1.00      1 F:xyz           2
                        (     109.271 eV)
    49      49       --         4.016 au  C             1.00      1 F:z2x           2
                        (     109.271 eV)
    50      50       --         4.016 au  C             1.00      1 F:z2y           2
                        (     109.271 eV)
    51      51       --         4.016 au  C             1.00      1 F:x             2
                        (     109.271 eV)
    52      52       --         4.016 au  C             1.00      1 F:y             2
                        (     109.271 eV)
    53      53      2.000     -10.066 au  C             1.00      1 S               3
                        (    -273.921 eV)
    54      54      2.000      -0.501 au  C             1.00      2 S               3
                        (     -13.620 eV)
    55      55       --         0.373 au  C             1.00      3 S               3
                        (      10.158 eV)
    56      56       --         5.405 au  C             1.00      4 S               3
                        (     147.073 eV)
    57      57       --        49.848 au  C             1.00      5 S               3
                        (    1356.422 eV)
    58      58      0.667      -0.193 au  C             1.00      1 P:x             3
                        (      -5.239 eV)
    59      59       --         0.169 au  C             1.00      2 P:x             3
                        (       4.589 eV)
    60      60       --         2.013 au  C             1.00      3 P:x             3
                        (      54.789 eV)
    61      61      0.667      -0.193 au  C             1.00      1 P:y             3
                        (      -5.239 eV)
    62      62       --         0.169 au  C             1.00      2 P:y             3
                        (       4.589 eV)
    63      63       --         2.013 au  C             1.00      3 P:y             3
                        (      54.789 eV)
    64      64      0.667      -0.193 au  C             1.00      1 P:z             3
                        (      -5.239 eV)
    65      65       --         0.169 au  C             1.00      2 P:z             3
                        (       4.589 eV)
    66      66       --         2.013 au  C             1.00      3 P:z             3
                        (      54.789 eV)
    67      67       --         1.243 au  C             1.00      1 D:z2            3
                        (      33.824 eV)
    68      68       --         1.243 au  C             1.00      1 D:x2-y2         3
                        (      33.824 eV)
    69      69       --         1.243 au  C             1.00      1 D:xy            3
                        (      33.824 eV)
    70      70       --         1.243 au  C             1.00      1 D:xz            3
                        (      33.824 eV)
    71      71       --         1.243 au  C             1.00      1 D:yz            3
                        (      33.824 eV)
    72      72       --         4.016 au  C             1.00      1 F:z3            3
                        (     109.271 eV)
    73      73       --         4.016 au  C             1.00      1 F:z             3
                        (     109.271 eV)
    74      74       --         4.016 au  C             1.00      1 F:xyz           3
                        (     109.271 eV)
    75      75       --         4.016 au  C             1.00      1 F:z2x           3
                        (     109.271 eV)
    76      76       --         4.016 au  C             1.00      1 F:z2y           3
                        (     109.271 eV)
    77      77       --         4.016 au  C             1.00      1 F:x             3
                        (     109.271 eV)
    78      78       --         4.016 au  C             1.00      1 F:y             3
                        (     109.271 eV)
    79      79      2.000     -10.066 au  C             1.00      1 S               4
                        (    -273.921 eV)
    80      80      2.000      -0.501 au  C             1.00      2 S               4
                        (     -13.620 eV)
    81      81       --         0.373 au  C             1.00      3 S               4
                        (      10.158 eV)
    82      82       --         5.405 au  C             1.00      4 S               4
                        (     147.073 eV)
    83      83       --        49.848 au  C             1.00      5 S               4
                        (    1356.422 eV)
    84      84      0.667      -0.193 au  C             1.00      1 P:x             4
                        (      -5.239 eV)
    85      85       --         0.169 au  C             1.00      2 P:x             4
                        (       4.589 eV)
    86      86       --         2.013 au  C             1.00      3 P:x             4
                        (      54.789 eV)
    87      87      0.667      -0.193 au  C             1.00      1 P:y             4
                        (      -5.239 eV)
    88      88       --         0.169 au  C             1.00      2 P:y             4
                        (       4.589 eV)
    89      89       --         2.013 au  C             1.00      3 P:y             4
                        (      54.789 eV)
    90      90      0.667      -0.193 au  C             1.00      1 P:z             4
                        (      -5.239 eV)
    91      91       --         0.169 au  C             1.00      2 P:z             4
                        (       4.589 eV)
    92      92       --         2.013 au  C             1.00      3 P:z             4
                        (      54.789 eV)
    93      93       --         1.243 au  C             1.00      1 D:z2            4
                        (      33.824 eV)
    94      94       --         1.243 au  C             1.00      1 D:x2-y2         4
                        (      33.824 eV)
    95      95       --         1.243 au  C             1.00      1 D:xy            4
                        (      33.824 eV)
    96      96       --         1.243 au  C             1.00      1 D:xz            4
                        (      33.824 eV)
    97      97       --         1.243 au  C             1.00      1 D:yz            4
                        (      33.824 eV)
    98      98       --         4.016 au  C             1.00      1 F:z3            4
                        (     109.271 eV)
    99      99       --         4.016 au  C             1.00      1 F:z             4
                        (     109.271 eV)
   100     100       --         4.016 au  C             1.00      1 F:xyz           4
                        (     109.271 eV)
   101     101       --         4.016 au  C             1.00      1 F:z2x           4
                        (     109.271 eV)
   102     102       --         4.016 au  C             1.00      1 F:z2y           4
                        (     109.271 eV)
   103     103       --         4.016 au  C             1.00      1 F:x             4
                        (     109.271 eV)
   104     104       --         4.016 au  C             1.00      1 F:y             4
                        (     109.271 eV)
   105     105      2.000    -488.642 au  Br            1.00      1 S               5
                        (  -13296.634 eV)
   106     106      2.000     -63.585 au  Br            1.00      2 S               5
                        (   -1730.246 eV)
   107     107      2.000      -8.709 au  Br            1.00      3 S               5
                        (    -236.987 eV)
   108     108      2.000      -0.733 au  Br            1.00      4 S               5
                        (     -19.946 eV)
   109     109       --         0.224 au  Br            1.00      5 S               5
                        (       6.099 eV)
   110     110       --         2.414 au  Br            1.00      6 S               5
                        (      65.683 eV)
   111     111       --        13.546 au  Br            1.00      7 S               5
                        (     368.609 eV)
   112     112       --       615.209 au  Br            1.00      8 S               5
                        (   16740.684 eV)
   113     113      2.000     -56.116 au  Br            1.00      1 P:x             5
                        (   -1526.987 eV)
   114     114      2.000      -6.365 au  Br            1.00      2 P:x             5
                        (    -173.205 eV)
   115     115      1.667      -0.284 au  Br            1.00      3 P:x             5
                        (      -7.716 eV)
   116     116       --         0.137 au  Br            1.00      4 P:x             5
                        (       3.720 eV)
   117     117       --         1.208 au  Br            1.00      5 P:x             5
                        (      32.874 eV)
   118     118       --         8.734 au  Br            1.00      6 P:x             5
                        (     237.661 eV)
   119     119       --        95.627 au  Br            1.00      7 P:x             5
                        (    2602.141 eV)
   120     120      2.000     -56.116 au  Br            1.00      1 P:y             5
                        (   -1526.987 eV)
   121     121      2.000      -6.365 au  Br            1.00      2 P:y             5
                        (    -173.205 eV)
   122     122      1.667      -0.284 au  Br            1.00      3 P:y             5
                        (      -7.716 eV)
   123     123       --         0.137 au  Br            1.00      4 P:y             5
                        (       3.720 eV)
   124     124       --         1.208 au  Br            1.00      5 P:y             5
                        (      32.874 eV)
   125     125       --         8.734 au  Br            1.00      6 P:y             5
                        (     237.661 eV)
   126     126       --        95.627 au  Br            1.00      7 P:y             5
                        (    2602.141 eV)
   127     127      2.000     -56.116 au  Br            1.00      1 P:z             5
                        (   -1526.987 eV)
   128     128      2.000      -6.365 au  Br            1.00      2 P:z             5
                        (    -173.205 eV)
   129     129      1.667      -0.284 au  Br            1.00      3 P:z             5
                        (      -7.716 eV)
   130     130       --         0.137 au  Br            1.00      4 P:z             5
                        (       3.720 eV)
   131     131       --         1.208 au  Br            1.00      5 P:z             5
                        (      32.874 eV)
   132     132       --         8.734 au  Br            1.00      6 P:z             5
                        (     237.661 eV)
   133     133       --        95.627 au  Br            1.00      7 P:z             5
                        (    2602.141 eV)
   134     134      2.000      -2.452 au  Br            1.00      1 D:z2            5
                        (     -66.719 eV)
   135     135       --         0.270 au  Br            1.00      2 D:z2            5
                        (       7.341 eV)
   136     136       --         2.706 au  Br            1.00      3 D:z2            5
                        (      73.633 eV)
   137     137       --        20.525 au  Br            1.00      4 D:z2            5
                        (     558.519 eV)
   138     138      2.000      -2.452 au  Br            1.00      1 D:x2-y2         5
                        (     -66.719 eV)
   139     139       --         0.270 au  Br            1.00      2 D:x2-y2         5
                        (       7.341 eV)
   140     140       --         2.706 au  Br            1.00      3 D:x2-y2         5
                        (      73.633 eV)
   141     141       --        20.525 au  Br            1.00      4 D:x2-y2         5
                        (     558.519 eV)
   142     142      2.000      -2.452 au  Br            1.00      1 D:xy            5
                        (     -66.719 eV)
   143     143       --         0.270 au  Br            1.00      2 D:xy            5
                        (       7.341 eV)
   144     144       --         2.706 au  Br            1.00      3 D:xy            5
                        (      73.633 eV)
   145     145       --        20.525 au  Br            1.00      4 D:xy            5
                        (     558.519 eV)
   146     146      2.000      -2.452 au  Br            1.00      1 D:xz            5
                        (     -66.719 eV)
   147     147       --         0.270 au  Br            1.00      2 D:xz            5
                        (       7.341 eV)
   148     148       --         2.706 au  Br            1.00      3 D:xz            5
                        (      73.633 eV)
   149     149       --        20.525 au  Br            1.00      4 D:xz            5
                        (     558.519 eV)
   150     150      2.000      -2.452 au  Br            1.00      1 D:yz            5
                        (     -66.719 eV)
   151     151       --         0.270 au  Br            1.00      2 D:yz            5
                        (       7.341 eV)
   152     152       --         2.706 au  Br            1.00      3 D:yz            5
                        (      73.633 eV)
   153     153       --        20.525 au  Br            1.00      4 D:yz            5
                        (     558.519 eV)
   154     154       --         0.857 au  Br            1.00      1 F:z3            5
                        (      23.313 eV)
   155     155       --         0.857 au  Br            1.00      1 F:z             5
                        (      23.313 eV)
   156     156       --         0.857 au  Br            1.00      1 F:xyz           5
                        (      23.313 eV)
   157     157       --         0.857 au  Br            1.00      1 F:z2x           5
                        (      23.313 eV)
   158     158       --         0.857 au  Br            1.00      1 F:z2y           5
                        (      23.313 eV)
   159     159       --         0.857 au  Br            1.00      1 F:x             5
                        (      23.313 eV)
   160     160       --         0.857 au  Br            1.00      1 F:y             5
                        (      23.313 eV)
   161     161      2.000     -18.941 au  O             1.00      1 S               6
                        (    -515.403 eV)
   162     162      2.000      -0.876 au  O             1.00      2 S               6
                        (     -23.838 eV)
   163     163       --         0.791 au  O             1.00      3 S               6
                        (      21.524 eV)
   164     164       --        13.422 au  O             1.00      4 S               6
                        (     365.226 eV)
   165     165       --       121.561 au  O             1.00      5 S               6
                        (    3307.838 eV)
   166     166      1.333      -0.331 au  O             1.00      1 P:x             6
                        (      -9.020 eV)
   167     167       --         0.347 au  O             1.00      2 P:x             6
                        (       9.437 eV)
   168     168       --         3.820 au  O             1.00      3 P:x             6
                        (     103.939 eV)
   169     169      1.333      -0.331 au  O             1.00      1 P:y             6
                        (      -9.020 eV)
   170     170       --         0.347 au  O             1.00      2 P:y             6
                        (       9.437 eV)
   171     171       --         3.820 au  O             1.00      3 P:y             6
                        (     103.939 eV)
   172     172      1.333      -0.331 au  O             1.00      1 P:z             6
                        (      -9.020 eV)
   173     173       --         0.347 au  O             1.00      2 P:z             6
                        (       9.437 eV)
   174     174       --         3.820 au  O             1.00      3 P:z             6
                        (     103.939 eV)
   175     175       --         1.071 au  O             1.00      1 D:z2            6
                        (      29.134 eV)
   176     176       --         1.071 au  O             1.00      1 D:x2-y2         6
                        (      29.134 eV)
   177     177       --         1.071 au  O             1.00      1 D:xy            6
                        (      29.134 eV)
   178     178       --         1.071 au  O             1.00      1 D:xz            6
                        (      29.134 eV)
   179     179       --         1.071 au  O             1.00      1 D:yz            6
                        (      29.134 eV)
   180     180       --         3.359 au  O             1.00      1 F:z3            6
                        (      91.410 eV)
   181     181       --         3.359 au  O             1.00      1 F:z             6
                        (      91.410 eV)
   182     182       --         3.359 au  O             1.00      1 F:xyz           6
                        (      91.410 eV)
   183     183       --         3.359 au  O             1.00      1 F:z2x           6
                        (      91.410 eV)
   184     184       --         3.359 au  O             1.00      1 F:z2y           6
                        (      91.410 eV)
   185     185       --         3.359 au  O             1.00      1 F:x             6
                        (      91.410 eV)
   186     186       --         3.359 au  O             1.00      1 F:y             6
                        (      91.410 eV)
   187     187      2.000     -18.941 au  O             1.00      1 S               7
                        (    -515.403 eV)
   188     188      2.000      -0.876 au  O             1.00      2 S               7
                        (     -23.838 eV)
   189     189       --         0.791 au  O             1.00      3 S               7
                        (      21.524 eV)
   190     190       --        13.422 au  O             1.00      4 S               7
                        (     365.226 eV)
   191     191       --       121.561 au  O             1.00      5 S               7
                        (    3307.838 eV)
   192     192      1.333      -0.331 au  O             1.00      1 P:x             7
                        (      -9.020 eV)
   193     193       --         0.347 au  O             1.00      2 P:x             7
                        (       9.437 eV)
   194     194       --         3.820 au  O             1.00      3 P:x             7
                        (     103.939 eV)
   195     195      1.333      -0.331 au  O             1.00      1 P:y             7
                        (      -9.020 eV)
   196     196       --         0.347 au  O             1.00      2 P:y             7
                        (       9.437 eV)
   197     197       --         3.820 au  O             1.00      3 P:y             7
                        (     103.939 eV)
   198     198      1.333      -0.331 au  O             1.00      1 P:z             7
                        (      -9.020 eV)
   199     199       --         0.347 au  O             1.00      2 P:z             7
                        (       9.437 eV)
   200     200       --         3.820 au  O             1.00      3 P:z             7
                        (     103.939 eV)
   201     201       --         1.071 au  O             1.00      1 D:z2            7
                        (      29.134 eV)
   202     202       --         1.071 au  O             1.00      1 D:x2-y2         7
                        (      29.134 eV)
   203     203       --         1.071 au  O             1.00      1 D:xy            7
                        (      29.134 eV)
   204     204       --         1.071 au  O             1.00      1 D:xz            7
                        (      29.134 eV)
   205     205       --         1.071 au  O             1.00      1 D:yz            7
                        (      29.134 eV)
   206     206       --         3.359 au  O             1.00      1 F:z3            7
                        (      91.410 eV)
   207     207       --         3.359 au  O             1.00      1 F:z             7
                        (      91.410 eV)
   208     208       --         3.359 au  O             1.00      1 F:xyz           7
                        (      91.410 eV)
   209     209       --         3.359 au  O             1.00      1 F:z2x           7
                        (      91.410 eV)
   210     210       --         3.359 au  O             1.00      1 F:z2y           7
                        (      91.410 eV)
   211     211       --         3.359 au  O             1.00      1 F:x             7
                        (      91.410 eV)
   212     212       --         3.359 au  O             1.00      1 F:y             7
                        (      91.410 eV)
   213     213      1.000      -0.240 au  H             1.00      1 S               8
                        (      -6.532 eV)
   214     214       --         0.088 au  H             1.00      2 S               8
                        (       2.394 eV)
   215     215       --         1.502 au  H             1.00      3 S               8
                        (      40.869 eV)
   216     216       --         0.406 au  H             1.00      1 P:x             8
                        (      11.051 eV)
   217     217       --         0.406 au  H             1.00      1 P:y             8
                        (      11.051 eV)
   218     218       --         0.406 au  H             1.00      1 P:z             8
                        (      11.051 eV)
   219     219       --         2.569 au  H             1.00      1 D:z2            8
                        (      69.917 eV)
   220     220       --         2.569 au  H             1.00      1 D:x2-y2         8
                        (      69.917 eV)
   221     221       --         2.569 au  H             1.00      1 D:xy            8
                        (      69.917 eV)
   222     222       --         2.569 au  H             1.00      1 D:xz            8
                        (      69.917 eV)
   223     223       --         2.569 au  H             1.00      1 D:yz            8
                        (      69.917 eV)
   224     224      1.000      -0.240 au  H             1.00      1 S               9
                        (      -6.532 eV)
   225     225       --         0.088 au  H             1.00      2 S               9
                        (       2.394 eV)
   226     226       --         1.502 au  H             1.00      3 S               9
                        (      40.869 eV)
   227     227       --         0.406 au  H             1.00      1 P:x             9
                        (      11.051 eV)
   228     228       --         0.406 au  H             1.00      1 P:y             9
                        (      11.051 eV)
   229     229       --         0.406 au  H             1.00      1 P:z             9
                        (      11.051 eV)
   230     230       --         2.569 au  H             1.00      1 D:z2            9
                        (      69.917 eV)
   231     231       --         2.569 au  H             1.00      1 D:x2-y2         9
                        (      69.917 eV)
   232     232       --         2.569 au  H             1.00      1 D:xy            9
                        (      69.917 eV)
   233     233       --         2.569 au  H             1.00      1 D:xz            9
                        (      69.917 eV)
   234     234       --         2.569 au  H             1.00      1 D:yz            9
                        (      69.917 eV)
   235     235      1.000      -0.240 au  H             1.00      1 S              10
                        (      -6.532 eV)
   236     236       --         0.088 au  H             1.00      2 S              10
                        (       2.394 eV)
   237     237       --         1.502 au  H             1.00      3 S              10
                        (      40.869 eV)
   238     238       --         0.406 au  H             1.00      1 P:x            10
                        (      11.051 eV)
   239     239       --         0.406 au  H             1.00      1 P:y            10
                        (      11.051 eV)
   240     240       --         0.406 au  H             1.00      1 P:z            10
                        (      11.051 eV)
   241     241       --         2.569 au  H             1.00      1 D:z2           10
                        (      69.917 eV)
   242     242       --         2.569 au  H             1.00      1 D:x2-y2        10
                        (      69.917 eV)
   243     243       --         2.569 au  H             1.00      1 D:xy           10
                        (      69.917 eV)
   244     244       --         2.569 au  H             1.00      1 D:xz           10
                        (      69.917 eV)
   245     245       --         2.569 au  H             1.00      1 D:yz           10
                        (      69.917 eV)



 ================================
 (Slater-type)  F U N C T I O N S  ***  (Basis and Fit)  ***
 ================================
  

 Atom Type    1  (C)
 ==============

 Valence Basis Sets:  10
 -----------------------
   1 S    7.680000
   1 S    5.000000
   2 S    1.280000
   2 S    2.100000
   2 S    4.600000
   2 P    0.820000
   2 P    1.480000
   2 P    2.940000
   3 D    2.200000
   4 F    3.300000

 Atom Type    2  (Br)
 ==============

 Valence Basis Sets:  20
 -----------------------
   1 S   41.300000
   1 S   32.800000
   2 S   13.900000
   2 P   19.450000
   2 P   13.100000
   3 S    7.200000
   3 S    4.950000
   3 P    7.900000
   3 P    5.050000
   3 D   10.900000
   3 D    6.050000
   3 D    3.500000
   4 S    4.500000
   4 S    2.800000
   4 S    1.800000
   4 P    3.250000
   4 P    1.950000
   4 P    1.200000
   4 D    1.800000
   4 F    1.800000

 Atom Type    3  (O)
 ==============

 Valence Basis Sets:  10
 -----------------------
   1 S    9.800000
   1 S    6.800000
   2 S    7.580000
   2 S    2.880000
   2 S    1.720000
   2 P    4.080000
   2 P    2.080000
   2 P    1.120000
   3 D    2.000000
   4 F    3.000000

 Atom Type    4  (H)
 ==============

 Valence Basis Sets:   5
 -----------------------
   1 S    0.690000
   1 S    0.920000
   1 S    1.580000
   2 P    1.250000
   3 D    2.500000


 BAS: List of all Elementary Cartesian Basis Functions
 =====================================================

 The numbering in the list below (to the right of the function characteristics) is referred
 to in print-outs of MO eigenvectors and Mulliken populations in the BAS representation
 (as contrasted to the SFO representation).

 Notes:
 1. The functions are characterized by a polynomial prefactor (powers of x,y,z and r) and
    an exponential decay factor alpha.
 2. Since the basis sets are specific for an atom TYPE, the individual functions occur on
    all atoms of that type.
 3. The word 'Core' in the left margin signals that it is a Core Function (CF) : not a
    degree of freedom in the valence set, but only used to ensure orthogonalization of
    the other valence basis functions on the frozen Core Orbitals.


 (power of) X  Y  Z  R     Alpha  on Atom
            ==========     =====     ==========

 C                                    1    2    3    4
                                  ---------------------------------------------------------------------------
            0  0  0  0     7.680      1   31   61   91
            0  0  0  0     5.000      2   32   62   92
            0  0  0  1     1.280      3   33   63   93
            0  0  0  1     2.100      4   34   64   94
            0  0  0  1     4.600      5   35   65   95
            1  0  0  0     0.820      6   36   66   96
            0  1  0  0     0.820      7   37   67   97
            0  0  1  0     0.820      8   38   68   98
            1  0  0  0     1.480      9   39   69   99
            0  1  0  0     1.480     10   40   70  100
            0  0  1  0     1.480     11   41   71  101
            1  0  0  0     2.940     12   42   72  102
            0  1  0  0     2.940     13   43   73  103
            0  0  1  0     2.940     14   44   74  104
            2  0  0  0     2.200     15   45   75  105
            1  1  0  0     2.200     16   46   76  106
            1  0  1  0     2.200     17   47   77  107
            0  2  0  0     2.200     18   48   78  108
            0  1  1  0     2.200     19   49   79  109
            0  0  2  0     2.200     20   50   80  110
            3  0  0  0     3.300     21   51   81  111
            2  1  0  0     3.300     22   52   82  112
            2  0  1  0     3.300     23   53   83  113
            1  2  0  0     3.300     24   54   84  114
            1  1  1  0     3.300     25   55   85  115
            1  0  2  0     3.300     26   56   86  116
            0  3  0  0     3.300     27   57   87  117
            0  2  1  0     3.300     28   58   88  118
            0  1  2  0     3.300     29   59   89  119
            0  0  3  0     3.300     30   60   90  120

 Br                                   5
                                  ---------------------------------------------------------------------------
            0  0  0  0    41.300    121
            0  0  0  0    32.800    122
            0  0  0  1    13.900    123
            1  0  0  0    19.450    124
            0  1  0  0    19.450    125
            0  0  1  0    19.450    126
            1  0  0  0    13.100    127
            0  1  0  0    13.100    128
            0  0  1  0    13.100    129
            0  0  0  2     7.200    130
            0  0  0  2     4.950    131
            1  0  0  1     7.900    132
            0  1  0  1     7.900    133
            0  0  1  1     7.900    134
            1  0  0  1     5.050    135
            0  1  0  1     5.050    136
            0  0  1  1     5.050    137
            2  0  0  0    10.900    138
            1  1  0  0    10.900    139
            1  0  1  0    10.900    140
            0  2  0  0    10.900    141
            0  1  1  0    10.900    142
            0  0  2  0    10.900    143
            2  0  0  0     6.050    144
            1  1  0  0     6.050    145
            1  0  1  0     6.050    146
            0  2  0  0     6.050    147
            0  1  1  0     6.050    148
            0  0  2  0     6.050    149
            2  0  0  0     3.500    150
            1  1  0  0     3.500    151
            1  0  1  0     3.500    152
            0  2  0  0     3.500    153
            0  1  1  0     3.500    154
            0  0  2  0     3.500    155
            0  0  0  3     4.500    156
            0  0  0  3     2.800    157
            0  0  0  3     1.800    158
            1  0  0  2     3.250    159
            0  1  0  2     3.250    160
            0  0  1  2     3.250    161
            1  0  0  2     1.950    162
            0  1  0  2     1.950    163
            0  0  1  2     1.950    164
            1  0  0  2     1.200    165
            0  1  0  2     1.200    166
            0  0  1  2     1.200    167
            2  0  0  1     1.800    168
            1  1  0  1     1.800    169
            1  0  1  1     1.800    170
            0  2  0  1     1.800    171
            0  1  1  1     1.800    172
            0  0  2  1     1.800    173
            3  0  0  0     1.800    174
            2  1  0  0     1.800    175
            2  0  1  0     1.800    176
            1  2  0  0     1.800    177
            1  1  1  0     1.800    178
            1  0  2  0     1.800    179
            0  3  0  0     1.800    180
            0  2  1  0     1.800    181
            0  1  2  0     1.800    182
            0  0  3  0     1.800    183

 O                                    6    7
                                  ---------------------------------------------------------------------------
            0  0  0  0     9.800    184  214
            0  0  0  0     6.800    185  215
            0  0  0  1     7.580    186  216
            0  0  0  1     2.880    187  217
            0  0  0  1     1.720    188  218
            1  0  0  0     4.080    189  219
            0  1  0  0     4.080    190  220
            0  0  1  0     4.080    191  221
            1  0  0  0     2.080    192  222
            0  1  0  0     2.080    193  223
            0  0  1  0     2.080    194  224
            1  0  0  0     1.120    195  225
            0  1  0  0     1.120    196  226
            0  0  1  0     1.120    197  227
            2  0  0  0     2.000    198  228
            1  1  0  0     2.000    199  229
            1  0  1  0     2.000    200  230
            0  2  0  0     2.000    201  231
            0  1  1  0     2.000    202  232
            0  0  2  0     2.000    203  233
            3  0  0  0     3.000    204  234
            2  1  0  0     3.000    205  235
            2  0  1  0     3.000    206  236
            1  2  0  0     3.000    207  237
            1  1  1  0     3.000    208  238
            1  0  2  0     3.000    209  239
            0  3  0  0     3.000    210  240
            0  2  1  0     3.000    211  241
            0  1  2  0     3.000    212  242
            0  0  3  0     3.000    213  243

 H                                    8    9   10
                                  ---------------------------------------------------------------------------
            0  0  0  0     0.690    244  256  268
            0  0  0  0     0.920    245  257  269
            0  0  0  0     1.580    246  258  270
            1  0  0  0     1.250    247  259  271
            0  1  0  0     1.250    248  260  272
            0  0  1  0     1.250    249  261  273
            2  0  0  0     2.500    250  262  274
            1  1  0  0     2.500    251  263  275
            1  0  1  0     2.500    252  264  276
            0  2  0  0     2.500    253  265  277
            0  1  1  0     2.500    254  266  278
            0  0  2  0     2.500    255  267  279

 Total number of charge fitting functions (nprimf)       824
 Total number of Cartesian basis functions (naos)        279
 Total number of Cartesian core functions  (ncos)          0

 ***************************************************************************************************



                                              ***********************
                                              *  T E C H N I C A L  *
                                              ***********************
  



 =============================================================
 P A R A L L E L I Z A T I O N  and  V E C T O R I Z A T I O N
 =============================================================
  
 Nr of parallel processes:                                1
 Maximum vector length in NumInt loops:                 128



 =====================
 S C F   U P D A T E S
 =====================
  
 Max. nr. of cycles:                               200
 Convergence criterion:                              0.0000010000
   secondary criterion:                              0.0010000000

 Mix parameter (when DIIS does not apply):           0.2000000000
 Mixed ADIIS+SDIIS will be used                  
    Max number of expansion vectors:                10
    Pure ADIIS when Max([F,P]) is above              0.1000000000
    Pure SDIIS when Max([F,P]) is below              0.0010000000
 Automatic ElectronSmearing (in case of problematic SCF convergence) disabled



 =================
 P R E C I S I O N  ***  (General: NumInt, NeglectFunctionTails, ...)  ***
 =================
  

 NumInt:           Target precision:                 4.0000000000
 -------           Initial precision:                4.0000000000
                   Min. precision (optimization):    4.0000000000

 Neglect Functions:          Basis functions:        0.1000000000E-05
 ------------------          Fit functions:          0.1000000000E-05



 ===========================
 L I N E A R   S C A L I N G
 ===========================
  

 Cut-off radii density fit:                        0.1000000000E-07
 Overlap cut-off criterion AO matrix elements:     0.1000000000E-05
 Cut-offs for Coulomb potential and fitted density:0.1000000000E-07
 Cut-off criterion for Coulomb multipole terms:    0.1000000000E-07
 Progressive Convergence parameter:                 0.000000000    
 ***************************************************************************************************



                                            ***************************
                                            *  C O M P U T A T I O N  *
                                            ***************************
  

 Number of elements of the density matrix on this node (used, total):     39060     39060



 ===========================================
 Numerical Integration : Fuzzy Cells (Becke)
 ===========================================
  
 Becke grid quality: NORMAL         
  
 Lebedev angular grid order:             min:  11 max:  23
 Nr. of radial points:                   min:  46 max:  77

 Total nr. of points:      69920
 Nr. of blocks:              547
 Block length:               128
 Nr. of dummy points:         96


 Test of Precision of the Numerical Integration Grid
 ===================================================

 Integral of the Total Core Density:                   0.00000000000000



 ========================
 Density Fitting (zlmFit)
 ========================
  
 ZlmFit Fit Quality: NORMAL         
  
 Max L-expansion:                        min:   6 max:   7
 Nr. of radial interpolation points:     min:  39 max:  72



 =====
 S C F  ***  ScaSCF  ***
 =====
  
 Initial density matrix is calculated as sum of fragments

 CYCLE    1
 SCF Error: norm([F,P])=      6.181853567141, max([F,P])=      1.487788624825
 orbitals (Q,E):
 ---------------
 A :30...49          ( 2.00    -0.5368)  ( 2.00    -0.5016)  ( 2.00    -0.4976)  ( 2.00    -0.4695)
                     ( 2.00    -0.4291)  ( 2.00    -0.4204)  ( 2.00    -0.4120)  ( 2.00    -0.4065)
                     ( 2.00    -0.3045)  ( 2.00    -0.3012)  ( 0.00    -0.1923)  ( 0.00    -0.1394)
                     ( 0.00    -0.1008)  ( 0.00    -0.0553)  ( 0.00    -0.0458)  ( 0.00    -0.0416)
                     ( 0.00    -0.0024)  ( 0.00     0.0048)  ( 0.00     0.0289)  ( 0.00     0.0532)

 CYCLE    2
   MIX coefficients:  0.8000  0.2000
 SCF Error: norm([F,P])=      1.194458120792, max([F,P])=      0.202103148322
 orbitals (Q,E):
 ---------------
 A :30...40          ( 2.00    -0.4976)  ( 2.00    -0.4714)  ( 2.00    -0.4403)  ( 2.00    -0.4066)
                     ( 2.00    -0.3796)  ( 2.00    -0.3757)  ( 2.00    -0.3468)  ( 2.00    -0.3306)
                     ( 2.00    -0.2987)  ( 2.00    -0.2934)  ( 0.00    -0.1529)

 CYCLE    3
  SDIIS (wt  0.000): -0.4754  1.4754
 A-DIIS (wt  1.000):  0.0000  1.0000
  DIIS coefficients:  0.0000  1.0000
 SCF Error: norm([F,P])=      0.506475665126, max([F,P])=      0.073268374052
 orbitals (Q,E):
 ---------------
 A :30...40          ( 2.00    -0.3591)  ( 2.00    -0.3267)  ( 2.00    -0.3244)  ( 2.00    -0.3228)
                     ( 2.00    -0.3120)  ( 2.00    -0.2579)  ( 2.00    -0.2101)  ( 2.00    -0.2051)
                     ( 2.00    -0.1945)  ( 2.00    -0.1622)  ( 0.00    -0.0692)

 CYCLE    4
  SDIIS (wt  0.000):  0.1172  0.4538  0.4290
 A-DIIS (wt  1.000):  0.0000  0.6907  0.3093
  DIIS coefficients:  0.0000  0.6907  0.3093
 SCF Error: norm([F,P])=      0.830861160783, max([F,P])=      0.191719109376
 orbitals (Q,E):
 ---------------
 A :30...40          ( 2.00    -0.4261)  ( 2.00    -0.3789)  ( 2.00    -0.3623)  ( 2.00    -0.3229)
                     ( 2.00    -0.3216)  ( 2.00    -0.3123)  ( 2.00    -0.2702)  ( 2.00    -0.2604)
                     ( 2.00    -0.2357)  ( 2.00    -0.2240)  ( 0.00    -0.0963)

 CYCLE    5
  SDIIS (wt  0.605): -0.0240  0.3903  0.1624  0.4713
 A-DIIS (wt  0.395):  0.0000  0.0000  0.0000  1.0000
  DIIS coefficients: -0.0145  0.2362  0.0983  0.6801
 SCF Error: norm([F,P])=      0.189339038966, max([F,P])=      0.040097885255
 orbitals (Q,E):
 ---------------
 A :30...40          ( 2.00    -0.4342)  ( 2.00    -0.3905)  ( 2.00    -0.3764)  ( 2.00    -0.3427)
                     ( 2.00    -0.3392)  ( 2.00    -0.3345)  ( 2.00    -0.2835)  ( 2.00    -0.2664)
                     ( 2.00    -0.2559)  ( 2.00    -0.2324)  ( 0.00    -0.1145)

 CYCLE    6
  SDIIS (wt  0.000): -0.0163  0.2010  0.0523  0.5214  0.2415
 A-DIIS (wt  1.000):  0.0000  0.0000  0.0000  0.6370  0.3630
  DIIS coefficients:  0.0000  0.0000  0.0000  0.6370  0.3630
 SCF Error: norm([F,P])=      0.282360260570, max([F,P])=      0.085045647264
 orbitals (Q,E):
 ---------------
 A :30...40          ( 2.00    -0.4400)  ( 2.00    -0.3993)  ( 2.00    -0.3806)  ( 2.00    -0.3386)
                     ( 2.00    -0.3367)  ( 2.00    -0.3330)  ( 2.00    -0.2849)  ( 2.00    -0.2730)
                     ( 2.00    -0.2552)  ( 2.00    -0.2421)  ( 0.00    -0.1117)

 CYCLE    7
  SDIIS (wt  0.851): -0.0088  0.0785  0.0259  0.3648  0.2167  0.3229
 A-DIIS (wt  0.149):  0.0000  0.0000  0.0000  0.0000  0.0469  0.9531
  DIIS coefficients: -0.0075  0.0668  0.0221  0.3105  0.1914  0.4168
 SCF Error: norm([F,P])=      0.088798436458, max([F,P])=      0.015747042476
 orbitals (Q,E):
 ---------------
 A :30...40          ( 2.00    -0.4315)  ( 2.00    -0.3902)  ( 2.00    -0.3721)  ( 2.00    -0.3345)
                     ( 2.00    -0.3324)  ( 2.00    -0.3264)  ( 2.00    -0.2788)  ( 2.00    -0.2650)
                     ( 2.00    -0.2490)  ( 2.00    -0.2343)  ( 0.00    -0.1070)

 CYCLE    8
  SDIIS (wt  0.949): -0.0007  0.0140  0.0049  0.1447  0.0806  0.2619  0.4945
 A-DIIS (wt  0.051):  0.0000  0.0000  0.0000  0.0000  0.0000  0.0726  0.9274
  DIIS coefficients: -0.0006  0.0133  0.0047  0.1373  0.0764  0.2522  0.5168
 SCF Error: norm([F,P])=      0.026758744627, max([F,P])=      0.006082397340
 orbitals (Q,E):
 ---------------
 A :30...40          ( 2.00    -0.4332)  ( 2.00    -0.3923)  ( 2.00    -0.3739)  ( 2.00    -0.3345)
                     ( 2.00    -0.3325)  ( 2.00    -0.3276)  ( 2.00    -0.2799)  ( 2.00    -0.2663)
                     ( 2.00    -0.2495)  ( 2.00    -0.2354)  ( 0.00    -0.1072)

 CYCLE    9
  SDIIS (wt  0.994): -0.0020  0.0062 -0.0003  0.0569  0.0317  0.1156  0.3008  0.4910
 A-DIIS (wt  0.006):  0.0000  0.0000  0.0000  0.0000  0.0000  0.0000  0.0198  0.9802
  DIIS coefficients: -0.0020  0.0062 -0.0003  0.0565  0.0315  0.1149  0.2991  0.4940
 SCF Error: norm([F,P])=      0.004918611444, max([F,P])=      0.001600252531
 orbitals (Q,E):
 ---------------
 A :30...40          ( 2.00    -0.4330)  ( 2.00    -0.3919)  ( 2.00    -0.3736)  ( 2.00    -0.3347)
                     ( 2.00    -0.3327)  ( 2.00    -0.3274)  ( 2.00    -0.2798)  ( 2.00    -0.2663)
                     ( 2.00    -0.2496)  ( 2.00    -0.2354)  ( 0.00    -0.1074)

 CYCLE   10
  SDIIS (wt  1.000): -0.0007  0.0018 -0.0002  0.0234  0.0130  0.0564  0.1628  0.3260  0.4175
  DIIS coefficients: -0.0007  0.0018 -0.0002  0.0234  0.0130  0.0564  0.1628  0.3260  0.4175
 SCF Error: norm([F,P])=      0.001401333190, max([F,P])=      0.000516979551
 orbitals (Q,E):
 ---------------
 A :30...40          ( 2.00    -0.4330)  ( 2.00    -0.3920)  ( 2.00    -0.3736)  ( 2.00    -0.3346)
                     ( 2.00    -0.3326)  ( 2.00    -0.3274)  ( 2.00    -0.2798)  ( 2.00    -0.2663)
                     ( 2.00    -0.2496)  ( 2.00    -0.2354)  ( 0.00    -0.1074)

 CYCLE   11
  SDIIS (wt  1.000): -0.0001  0.0001  0.0000  0.0035  0.0017  0.0129  0.0454  0.1307  0.3354  0.4705
  DIIS coefficients: -0.0001  0.0001  0.0000  0.0035  0.0017  0.0129  0.0454  0.1307  0.3354  0.4705
 SCF Error: norm([F,P])=      0.000675612724, max([F,P])=      0.000166196026
 orbitals (Q,E):
 ---------------
 A :30...40          ( 2.00    -0.4330)  ( 2.00    -0.3919)  ( 2.00    -0.3736)  ( 2.00    -0.3347)
                     ( 2.00    -0.3327)  ( 2.00    -0.3274)  ( 2.00    -0.2798)  ( 2.00    -0.2663)
                     ( 2.00    -0.2496)  ( 2.00    -0.2354)  ( 0.00    -0.1074)

 CYCLE   12
  SDIIS (wt  1.000): -0.0000  0.0000  0.0009  0.0004  0.0042  0.0158  0.0529  0.1335  0.2193  0.5731
  DIIS coefficients: -0.0000  0.0000  0.0009  0.0004  0.0042  0.0158  0.0529  0.1335  0.2193  0.5731
 SCF Error: norm([F,P])=      0.000098719154, max([F,P])=      0.000036615165
 orbitals (Q,E):
 ---------------
 A :30...40          ( 2.00    -0.4330)  ( 2.00    -0.3919)  ( 2.00    -0.3736)  ( 2.00    -0.3346)
                     ( 2.00    -0.3327)  ( 2.00    -0.3274)  ( 2.00    -0.2798)  ( 2.00    -0.2663)
                     ( 2.00    -0.2496)  ( 2.00    -0.2354)  ( 0.00    -0.1074)

 CYCLE   13
  SDIIS (wt  1.000):  0.0000  0.0002  0.0000  0.0009  0.0040  0.0179  0.0532  0.0982  0.3511  0.4745
  DIIS coefficients:  0.0000  0.0002  0.0000  0.0009  0.0040  0.0179  0.0532  0.0982  0.3511  0.4745
 SCF Error: norm([F,P])=      0.000038792798, max([F,P])=      0.000010917125
 orbitals (Q,E):
 ---------------
 A :30...40          ( 2.00    -0.4330)  ( 2.00    -0.3919)  ( 2.00    -0.3736)  ( 2.00    -0.3346)
                     ( 2.00    -0.3327)  ( 2.00    -0.3274)  ( 2.00    -0.2798)  ( 2.00    -0.2663)
                     ( 2.00    -0.2496)  ( 2.00    -0.2354)  ( 0.00    -0.1074)

 CYCLE   14
  SDIIS (wt  1.000):  0.0000 -0.0000  0.0000  0.0003  0.0018  0.0060  0.0134  0.0646  0.1570  0.7570
  DIIS coefficients:  0.0000 -0.0000  0.0000  0.0003  0.0018  0.0060  0.0134  0.0646  0.1570  0.7570
 SCF Error: norm([F,P])=      0.000004799385, max([F,P])=      0.000001038577
 orbitals (Q,E):
 ---------------
 A :30...40          ( 2.00    -0.4330)  ( 2.00    -0.3919)  ( 2.00    -0.3736)  ( 2.00    -0.3346)
                     ( 2.00    -0.3327)  ( 2.00    -0.3274)  ( 2.00    -0.2798)  ( 2.00    -0.2663)
                     ( 2.00    -0.2496)  ( 2.00    -0.2354)  ( 0.00    -0.1074)

 CYCLE   15
  SDIIS (wt  1.000): -0.0000  0.0000  0.0002  0.0012  0.0040  0.0082  0.0374  0.0785  0.3788  0.4917
  DIIS coefficients: -0.0000  0.0000  0.0002  0.0012  0.0040  0.0082  0.0374  0.0785  0.3788  0.4917
 SCF Error: norm([F,P])=      0.000002218517, max([F,P])=      0.000000535222
 orbitals (Q,E):
 ---------------
 A :30...40          ( 2.00    -0.4330)  ( 2.00    -0.3919)  ( 2.00    -0.3736)  ( 2.00    -0.3346)
                     ( 2.00    -0.3327)  ( 2.00    -0.3274)  ( 2.00    -0.2798)  ( 2.00    -0.2663)
                     ( 2.00    -0.2496)  ( 2.00    -0.2354)  ( 0.00    -0.1074)

 SCF CONVERGED

 CYCLE   16
 ***************************************************************************************************



                                                *******************
                                                *  R E S U L T S  *
                                                *******************
  
 *** Using FIT density in Focky
  SDIIS (wt  1.000):  0.0000  0.0000  0.0000  0.0002  0.0002  0.0016  0.0039  0.0376  0.1441  0.8124
  DIIS coefficients:  0.0000  0.0000  0.0000  0.0002  0.0002  0.0016  0.0039  0.0376  0.1441  0.8124
 SCF Error: norm([F,P])=      0.000000418020, max([F,P])=      0.000000093641

 Scaled ZORA Orbital Energies, per Irrep and Spin:
 =================================================
                        Occup              E (au)              E (eV)       Diff (eV) with prev. cycle
                        -----      --------------------        ------       --------------------------
 A
              30        2.000     -0.43302265262686E+00       -11.783               1.21E-06
              31        2.000     -0.39194123421889E+00       -10.665               1.11E-06
              32        2.000     -0.37363628442017E+00       -10.167               1.10E-06
              33        2.000     -0.33464547960605E+00        -9.106              -8.91E-07
              34        2.000     -0.33265312407629E+00        -9.052              -6.84E-07
              35        2.000     -0.32740607470663E+00        -8.909               1.31E-06
              36        2.000     -0.27979721844244E+00        -7.614               1.44E-06
              37        2.000     -0.26626907253272E+00        -7.246               3.34E-08
              38        2.000     -0.24961106533604E+00        -6.792              -1.03E-06
              39        2.000     -0.23538891498161E+00        -6.405              -4.40E-07
              40        0.000     -0.10737216386454E+00        -2.922
              41        0.000     -0.58425268226155E-01        -1.590
              42        0.000     -0.22957226207890E-01        -0.625
              43        0.000     -0.40737399212429E-02        -0.111
              44        0.000      0.37663867009285E-01         1.025
              45        0.000      0.41327342435907E-01         1.125
              46        0.000      0.44047145572296E-01         1.199
              47        0.000      0.51283702517242E-01         1.396
              48        0.000      0.54484582208936E-01         1.483
              49        0.000      0.94181895145482E-01         2.563
  
 HOMO :       39 A                -0.23538891498161E+00
 LUMO :       40 A                -0.10737216386454E+00
  


 All Electron Calculation, thus no Orbital Energies of the Core Orbitals are calculated


 Fit test: (difference of exact and fit density, squared integrated, result summed over spins)
         Sum-of-Fragments:                             0.00000000424557
         Orthogonalized Fragments:                     0.00105437494618
         SCF:                                          0.00112649646753



 ==========================
 Electron Density at Nuclei
 ==========================
  
 The electron density is calculated at points on a small sphere around the center of a nucleus.
 The printed electron density is the average electron density on these points.
 The radius of the sphere is the printed approximate finite nuclear radius.
 Note: ZORA-4 density is used, which includes small component density

         Atom        Nuclear Radius (Angstrom)             Electron Density (a.u.)
         ----        -------------------------             -----------------------
     1)   C                 0.0000320678                              127.14549
     2)   Br                0.0000536685                            33512.96766
     3)   C                 0.0000320678                              127.20113
     4)   C                 0.0000320678                              127.09674
     5)   O                 0.0000345546                              314.05431
     6)   O                 0.0000345546                              313.86799
     7)   C                 0.0000320678                              127.01832
     8)   H                 0.0000181514                                0.50903
     9)   H                 0.0000181514                                0.50892
    10)   H                 0.0000181514                                0.51069



 =======================================
 M U L L I K E N   P O P U L A T I O N S
 =======================================
  
 The survey below gives for each atom:
 a) the total charge (Z minus electrons)
 b) the net spin polarization (nr of electrons spin-A minus spin-B)
 c) for each spin the atomic electron valence density (integrated) per L-value.

 Atom              Charge    Spin density          S         P         D         F
 ----              ------    ------------       ------    ------    ------    ------
 1 C               0.1250                       3.0658    2.7516    0.0514    0.0063
 2 Br             -0.0639                       7.9570   16.9667   10.1117    0.0285
 3 C              -0.1123                       3.1494    2.9117    0.0440    0.0072
 4 C               0.7203                       2.8521    2.2408    0.1753    0.0114
 5 O              -0.5318                       3.8222    4.6467    0.0564    0.0064
 6 O              -0.5056                       3.7850    4.6356    0.0774    0.0076
 7 C               0.9398                       2.7293    2.2652    0.0616    0.0040
 8 H              -0.1750                       1.0892    0.0799    0.0058    0.0000
 9 H              -0.1763                       1.0905    0.0799    0.0059    0.0000
 10 H             -0.2204                       1.1386    0.0760    0.0057    0.0000

 Populations of individual BAS functions
 ----------------------------------------
 1 C            0.5047  1.4840  0.2440  0.8678 -0.0347 -0.0339  0.0609  0.0408  0.7345  0.6910
                0.7144  0.2101  0.1594  0.1744  0.0323  0.0139  0.0119 -0.0147  0.0052  0.0026
                0.0084  0.0063  0.0065 -0.0049  0.0010 -0.0010 -0.0053 -0.0026  0.0002 -0.0023
 3 C            0.5053  1.4821  0.3397  0.8540 -0.0317 -0.0669  0.1670  0.1170  0.7518  0.6790
                0.7053  0.2160  0.1647  0.1778  0.0477  0.0112  0.0121 -0.0171  0.0023 -0.0123
                0.0131  0.0091  0.0084 -0.0057  0.0007 -0.0044 -0.0061 -0.0024 -0.0011 -0.0043
 4 C            0.5053  1.4838  0.0363  0.8649 -0.0382 -0.1357 -0.0385 -0.0601  0.7098  0.6432
                0.5563  0.2096  0.1522  0.2040  0.0497  0.0203  0.0396 -0.0111  0.0328  0.0439
                0.0052  0.0040  0.0035 -0.0046  0.0015  0.0029 -0.0060 -0.0043  0.0045  0.0047
 7 C            0.5064  1.4848 -0.1740  0.9609 -0.0488 -0.0779 -0.1928 -0.2280  0.5436  0.8188
                0.8279  0.1551  0.2113  0.2072  0.0119  0.0180  0.0111  0.0057  0.0064  0.0087
                0.0036  0.0012  0.0006 -0.0006  0.0003 -0.0016 -0.0003 -0.0000  0.0002  0.0006
 2 Br           0.7968  1.1333  2.0967  0.8034  0.8036  0.8034  1.1701  1.1698  1.1701  1.6432
                0.2400  1.1653  1.1715  1.1672  0.8693  0.8640  0.8676  0.2684  0.4026  0.4026
                0.2683  0.4025  0.2683  0.7654  1.1487  1.1483  0.7663  1.1489  0.7657  0.3010
                0.4496  0.4508  0.2980  0.4491  0.2999  0.4308  1.2543  0.3618  0.5380  0.6249
                0.5650  0.8423  0.9864  0.8915  0.1371  0.1987  0.1576  0.0278  0.0209  0.0302
               -0.0009  0.0138  0.0156  0.0115  0.0118  0.0148 -0.0084  0.0057  0.0074 -0.0123
               -0.0067  0.0050 -0.0004
 5 O            0.7107  1.2123  0.0488  1.0325  0.8179  0.2967  0.2606  0.2915  0.8766  0.7982
                0.8737  0.4156  0.4204  0.4134  0.0096  0.0097  0.0163 -0.0015  0.0102  0.0121
                0.0021  0.0034  0.0031 -0.0046  0.0015  0.0046 -0.0068 -0.0052  0.0043  0.0041
 6 O            0.7180  1.2016  0.0529  1.0161  0.7964  0.2628  0.3088  0.2732  0.8525  0.9175
                0.8703  0.3411  0.4799  0.3295  0.0235  0.0113  0.0163 -0.0085  0.0131  0.0216
                0.0092  0.0045 -0.0009 -0.0074  0.0006  0.0005 -0.0099 -0.0065  0.0075  0.0101
 8 H            0.1073  0.6663  0.3156  0.0173  0.0306  0.0321 -0.0025  0.0010  0.0009  0.0039
                0.0013  0.0012
 9 H            0.1047  0.6711  0.3147  0.0192  0.0342  0.0265 -0.0006  0.0015  0.0006  0.0091
                0.0016 -0.0063
 10 H           0.1594  0.6747  0.3046  0.0115  0.0263  0.0382 -0.0062  0.0002  0.0013 -0.0042
                0.0020  0.0127

 Gross Charges per Atom (Z minus electrons)
 ==========================================
             0.1250   -0.0639   -0.1123    0.7203   -0.5318   -0.5056    0.9398   -0.1750   -0.1763   -0.2204
 Net Total: -0.00000000


 Atom-Atom Population Matrix (off-diagonal elements not doubled)
 ===============================================================

     1 :     4.6443
     2 :     0.3323   34.7760
     3 :     0.9174   -0.0395    4.8871
     4 :    -0.0037   -0.0054    0.4809    3.9050
     5 :    -0.0108    0.0007   -0.0592    0.5937    8.0716
     6 :    -0.0041   -0.0000   -0.0758    0.3510   -0.0810    8.1603
     7 :     0.0000   -0.0001    0.0044   -0.0271    0.0141    0.2476    3.6991
     8 :    -0.0001   -0.0000   -0.0014   -0.0073   -0.0015   -0.0286    0.3867    0.9875
     9 :    -0.0000   -0.0000   -0.0022   -0.0074   -0.0002   -0.0297    0.3860   -0.0780    0.9871
    10 :    -0.0004   -0.0000    0.0006   -0.0001    0.0045   -0.0341    0.3494   -0.0823   -0.0794    1.0622



 =================================================
 H I R S H F E L D   C H A R G E   A N A L Y S I S
 =================================================
  
 For each fragment: the (numerical) integral of rho(scf) * rho(fragment)/rho(sum-of-fragments)
 (nuclear charges are included, electrons are counted negative)

 The fragments and their ordering are defined in the early G E O M E T R Y output section.
 If you use single-atom fragments, this usually implies that all atoms of the same
 chemical type are grouped together. This may not be the order in which you listed them
 in the input file!

  Fragment                       Charge
 ------------------------------------------
    1  C                        -0.0569
    2  C                        -0.0601
    3  C                         0.1943
    4  C                        -0.0129
    5  Br                        0.1225
    6  O                        -0.2397
    7  O                        -0.0972
    8  H                         0.0480
    9  H                         0.0486
   10  H                         0.0533

 Sum of these charges =         -0.00005298
 (accuracy NumInt/Tails)



 =============================
 V O R O N O I   C H A R G E S
 =============================
  
 For each atom: the (numerical) integral of the total electronic charge density in its Voronoi cell,
 i.e. the region of space that is closer to that atom than to any other atom.
 (cf. Wigner-Seitz cells in crystals)

 Within the Voronoi cell the subintegrals over the atomic sphere and the remaining part are evaluated
[...]
                                    1.30%     1 P:x            11.051  0.00     8 H
                                    1.28%     3 P:x            -7.716  1.67     5 Br
                                    1.28%     1 P:y            -5.239  0.67     1 C
                                   -1.25%     2 P:z             9.437  0.00     7 O
                                   -1.22%     2 P:y             4.589  0.00     3 C
                                   -1.21%     1 P:z            -5.239  0.67     3 C
                                    1.11%     1 P:y            -9.020  1.33     6 O
                                    1.09%     1 P:x            11.051  0.00     9 H
                                   -1.08%     2 S             -13.620  2.00     3 C
                                   -1.05%     3 P:x            54.789  0.00     4 C
                                    1.04%     4 P:z             3.720  0.00     5 Br
                                   -1.03%     3 S              10.158  0.00     3 C
       1.125  0.00    45 A         24.19%     1 P:y            -5.239  0.67     2 C
                                   14.20%     1 P:y            -5.239  0.67     3 C
                                   12.99%     1 P:y            -5.239  0.67     1 C
                                   12.36%     1 S              -6.532  1.00     9 H
                                   11.14%     2 P:x             4.589  0.00     4 C
                                   -8.88%     2 P:y             4.589  0.00     4 C
                                    6.65%     1 P:x            -5.239  0.67     4 C
                                    6.62%     2 S               2.394  0.00     9 H
                                   -5.93%     2 P:y             4.589  0.00     2 C
                                    5.25%     1 P:y            -9.020  1.33     6 O
                                    4.78%     2 P:x             4.589  0.00     3 C
                                    3.89%     1 P:y            -5.239  0.67     4 C
                                    3.22%     1 P:z            -5.239  0.67     3 C
                                   -3.03%     2 P:y             4.589  0.00     1 C
                                    2.69%     1 S              -6.532  1.00    10 H
                                    2.07%     1 P:x            -9.020  1.33     7 O
                                    1.76%     2 D:x2-y2         7.341  0.00     5 Br
                                    1.73%     1 P:y            -9.020  1.33     7 O
                                    1.69%     2 D:xz            7.341  0.00     5 Br
                                   -1.55%     2 S             -13.620  2.00     2 C
                                    1.51%     1 S              -6.532  1.00     8 H
                                    1.45%     1 P:z            -5.239  0.67     4 C
                                    1.34%     2 P:x             4.589  0.00     1 C
                                    1.31%     3 P:x            -7.716  1.67     5 Br
                                   -1.31%     2 S               2.394  0.00     8 H
                                   -1.21%     3 S              10.158  0.00     2 C
                                   -1.19%     2 P:z             4.589  0.00     3 C
                                   -1.11%     2 P:y             9.437  0.00     6 O
       1.199  0.00    46 A        -43.02%     2 P:z             4.589  0.00     4 C
                                   42.68%     1 S              -6.532  1.00    10 H
                                   21.85%     2 S               2.394  0.00    10 H
                                   15.67%     1 S              -6.532  1.00     8 H
                                   11.18%     2 P:x             4.589  0.00     2 C
                                   10.10%     1 S              -6.532  1.00     9 H
                                    8.47%     2 S               2.394  0.00     8 H
                                    8.08%     2 S               2.394  0.00     9 H
                                    7.80%     2 P:x             4.589  0.00     1 C
                                    5.91%     1 P:z            -5.239  0.67     4 C
                                    4.45%     2 P:x             4.589  0.00     3 C
                                    3.18%     3 S              40.869  0.00    10 H
                                   -2.59%     2 P:y             4.589  0.00     4 C
                                   -2.47%     5 S               6.099  0.00     5 Br
                                   -2.42%     3 S              10.158  0.00     1 C
                                    2.18%     1 P:y            -5.239  0.67     3 C
                                   -1.99%     2 P:x             4.589  0.00     4 C
                                    1.68%     1 P:x            -5.239  0.67     2 C
                                    1.67%     1 P:x            -5.239  0.67     3 C
                                    1.61%     1 P:x            -5.239  0.67     4 C
                                    1.54%     1 P:x            -5.239  0.67     1 C
                                   -1.49%     2 S             -13.620  2.00     3 C
                                    1.41%     1 P:y            -5.239  0.67     2 C
                                    1.29%     2 D:xz            7.341  0.00     5 Br
                                    1.02%     3 P:z            54.789  0.00     4 C
       1.396  0.00    47 A         21.49%     2 P:x             4.589  0.00     2 C
                                   21.10%     2 P:x             4.589  0.00     1 C
                                   17.73%     1 S              -6.532  1.00     8 H
                                   15.44%     2 S               2.394  0.00     8 H
                                  -15.06%     5 S               6.099  0.00     5 Br
                                   10.97%     2 P:z             4.589  0.00     1 C
                                  -10.78%     2 P:y             4.589  0.00     4 C
                                   -8.64%     3 S              10.158  0.00     1 C
                                    8.33%     2 P:z             4.589  0.00     3 C
                                    6.95%     1 P:x            -5.239  0.67     2 C
                                    5.75%     2 P:x             4.589  0.00     3 C
                                    4.86%     2 D:xz            7.341  0.00     5 Br
                                   -4.83%     2 P:y             4.589  0.00     3 C
                                    4.68%     2 S               2.394  0.00     9 H
                                    4.13%     2 P:z             4.589  0.00     4 C
                                    3.87%     1 S              -6.532  1.00     9 H
                                    2.71%     2 P:y             4.589  0.00     1 C
                                    2.65%     2 P:z             4.589  0.00     2 C
                                    2.29%     1 S              -6.532  1.00    10 H
                                   -2.18%     2 P:x             4.589  0.00     4 C
                                   -2.14%     4 S             -19.946  2.00     5 Br
                                    2.07%     2 S               2.394  0.00    10 H
                                    1.95%     1 P:z            -5.239  0.67     1 C
                                   -1.81%     3 P:x            54.789  0.00     2 C
                                    1.62%     1 P:x            -5.239  0.67     1 C
                                   -1.55%     3 P:x            -7.716  1.67     5 Br
                                    1.46%     3 S              40.869  0.00     8 H
                                    1.41%     2 D:x2-y2         7.341  0.00     5 Br
                                    1.27%     1 P:y            -5.239  0.67     3 C
                                   -1.11%     2 S             -13.620  2.00     1 C
                                    1.06%     4 P:x             3.720  0.00     5 Br
                                   -1.00%     2 P:y             4.589  0.00     2 C
       1.483  0.00    48 A         17.72%     2 P:x             4.589  0.00     2 C
                                   17.33%     1 S              -6.532  1.00     9 H
                                   15.27%     2 S               2.394  0.00     9 H
                                   11.53%     1 S              -6.532  1.00     8 H
                                  -11.51%     5 S               6.099  0.00     5 Br
                                   10.78%     2 S               2.394  0.00     8 H
                                    8.92%     2 P:x             4.589  0.00     1 C
                                    8.24%     2 P:x             4.589  0.00     3 C
                                    7.66%     2 P:y             4.589  0.00     3 C
                                   -6.87%     2 P:y             4.589  0.00     4 C
                                   -6.30%     3 S              10.158  0.00     1 C
                                    5.01%     1 P:y            -5.239  0.67     2 C
                                    3.45%     4 P:x             3.720  0.00     5 Br
                                    3.43%     2 P:z             4.589  0.00     1 C
                                   -3.10%     2 P:y             4.589  0.00     1 C
                                    2.99%     1 P:z            -5.239  0.67     3 C
                                    2.68%     1 P:x            -5.239  0.67     2 C
                                   -2.62%     2 P:x             4.589  0.00     4 C
                                    2.43%     1 P:y            -5.239  0.67     1 C
                                    2.02%     2 P:y             4.589  0.00     2 C
                                   -1.83%     2 S             -13.620  2.00     3 C
                                    1.72%     3 S              40.869  0.00     9 H
                                    1.67%     1 P:x            -5.239  0.67     3 C
                                    1.53%     1 P:y            -5.239  0.67     4 C
                                    1.50%     1 P:y            -9.020  1.33     7 O
                                   -1.47%     2 P:z             4.589  0.00     4 C
                                    1.46%     2 S             -13.620  2.00     2 C
                                    1.23%     1 P:x            -5.239  0.67     1 C
                                    1.22%     1 P:z            -5.239  0.67     1 C
                                    1.19%     2 D:xz            7.341  0.00     5 Br
                                    1.07%     4 P:z             3.720  0.00     5 Br
                                   -1.05%     2 S             -13.620  2.00     1 C
                                   -1.00%     3 P:x            54.789  0.00     2 C



 =======================================================================
 Electrostatic potential at the Nuclei due to electrons and other nuclei
 =======================================================================
  
         Atom                  Potential
         ----                  ---------
     1)   C                  14.72602211
     2)   Br                180.47665050
     3)   C                  14.76454464
     4)   C                  14.63877202
     5)   O                  22.40276969
     6)   O                  22.33836165
     7)   C                  14.72209189
     8)   H                   1.09217273
     9)   H                   1.09145771
    10)   H                   1.08986690
 Mulliken charges used for AMS results%charges...


    =====================
     CALCULATION RESULTS
    =====================

Energy (hartree)            -2.08561025


--------------
Atomic charges
--------------
  Index   Atom    Charge
      1      C    0.1250
      2     Br   -0.0639
      3      C   -0.1123
      4      C    0.7203
      5      O   -0.5318
      6      O   -0.5056
      7      C    0.9398
      8      H   -0.1750
      9      H   -0.1763
     10      H   -0.2204


Dipole moment vector    (Debye):     0.47290319    1.04250476   -1.11163505
              magnitude (Debye):     1.59567731


-----------------------
Molecular orbitals info
-----------------------
n orbitals:              245
n spin:                    1

Note: only printing virtual orbitals with
      energy smaller than HOMO + 100. eV

HOMO (eV):              -6.4053
LUMO (eV):              -2.9217
HOMO-LUMO gap (eV):      3.4835

   Index   Energy (eV)    Occupation
     162       92.5028         0.000       
     161       92.3348         0.000       
     160       90.5958         0.000       
     159       89.3344         0.000       
     158       88.9258         0.000       
     157       88.5306         0.000       
     156       87.6312         0.000       
     155       86.8575         0.000       
     154       85.0269         0.000       
     153       83.5472         0.000       
     152       83.0958         0.000       
     151       82.4121         0.000       
     150       80.2150         0.000       
     149       79.4936         0.000       
     148       78.1639         0.000       
     147       77.7826         0.000       
     146       76.6980         0.000       
     145       76.3060         0.000       
     144       75.6525         0.000       
     143       75.1396         0.000       
     142       74.4950         0.000       
     141       73.6531         0.000       
     140       73.4685         0.000       
     139       72.6580         0.000       
     138       72.1273         0.000       
     137       70.7953         0.000       
     136       67.7937         0.000       
     135       66.2559         0.000       
     134       64.3890         0.000       
     133       64.1662         0.000       
     132       63.1933         0.000       
     131       61.0951         0.000       
     130       60.2711         0.000       
     129       57.6544         0.000       
     128       57.3125         0.000       
     127       56.0632         0.000       
     126       54.8073         0.000       
     125       53.7903         0.000       
     124       51.7566         0.000       
     123       49.8455         0.000       
     122       49.4679         0.000       
     121       48.4573         0.000       
     120       47.6276         0.000       
     119       47.0191         0.000       
     118       45.7398         0.000       
     117       44.5721         0.000       
     116       44.0507         0.000       
     115       43.1647         0.000       
     114       41.8799         0.000       
     113       41.4679         0.000       
     112       40.2568         0.000       
     111       38.8115         0.000       
     110       38.2516         0.000       
     109       38.1004         0.000       
     108       36.0722         0.000       
     107       34.6752         0.000       
     106       34.3892         0.000       
     105       33.4440         0.000       
     104       33.1981         0.000       
     103       32.6418         0.000       
     102       32.4870         0.000       
     101       32.0845         0.000       
     100       31.3093         0.000       
      99       29.6518         0.000       
      98       28.6213         0.000       
      97       28.1387         0.000       
      96       26.6989         0.000       
      95       25.6408         0.000       
      94       25.5567         0.000       
      93       25.3756         0.000       
      92       24.8528         0.000       
      91       24.4918         0.000       
      90       23.7765         0.000       
      89       23.1879         0.000       
      88       23.1052         0.000       
      87       23.0761         0.000       
      86       22.0198         0.000       
      85       21.8709         0.000       
      84       21.3261         0.000       
      83       20.1521         0.000       
      82       19.2911         0.000       
      81       18.5943         0.000       
      80       18.1300         0.000       
      79       17.9186         0.000       
      78       16.8353         0.000       
      77       16.0386         0.000       
      76       15.8637         0.000       
      75       14.8878         0.000       
      74       13.7153         0.000       
      73       13.0923         0.000       
      72       12.9084         0.000       
      71       11.8739         0.000       
      70       11.0824         0.000       
      69       10.5079         0.000       
      68        9.8749         0.000       
      67        9.5779         0.000       
      66        9.1974         0.000       
      65        9.0260         0.000       
      64        7.9168         0.000       
      63        7.6854         0.000       
      62        7.4335         0.000       
      61        7.1501         0.000       
      60        6.9035         0.000       
      59        6.8142         0.000       
      58        6.5813         0.000       
      57        5.5677         0.000       
      56        5.2234         0.000       
      55        5.0251         0.000       
      54        4.5523         0.000       
      53        4.1103         0.000       
      52        3.9158         0.000       
      51        3.2927         0.000       
      50        3.1598         0.000       
      49        2.5628         0.000       
      48        1.4826         0.000       
      47        1.3955         0.000       
      46        1.1986         0.000       
      45        1.1246         0.000       
      44        1.0249         0.000       
      43       -0.1109         0.000       
      42       -0.6247         0.000       
      41       -1.5898         0.000       
      40       -2.9217         0.000 < LUMO
      39       -6.4053         2.000 < HOMO
      38       -6.7923         2.000       
      37       -7.2456         2.000       
      36       -7.6137         2.000       
      35       -8.9092         2.000       
      34       -9.0520         2.000       
      33       -9.1062         2.000       
      32      -10.1672         2.000       
      31      -10.6653         2.000       
      30      -11.7831         2.000       
      29      -12.1631         2.000       
      28      -12.4241         2.000       
      27      -13.7248         2.000       
      26      -15.5477         2.000       
      25      -18.1937         2.000       
      24      -19.4060         2.000       
      23      -21.9889         2.000       
      22      -25.6861         2.000       
      21      -28.0835         2.000       
      20      -67.0989         2.000       
      19      -67.1071         2.000       
      18      -67.3996         2.000       
      17      -67.4109         2.000       
      16      -67.5168         2.000       
      15     -173.6924         2.000       
      14     -173.7040         2.000       
      13     -174.1009         2.000       
      12     -237.6058         2.000       
      11     -270.8034         2.000       
      10     -271.7232         2.000       
       9     -271.7766         2.000       
       8     -274.0508         2.000       
       7     -511.4441         2.000       
       6     -513.0933         2.000       
       5    -1527.8111         2.000       
       4    -1527.8158         2.000       
       3    -1527.9483         2.000       
       2    -1730.9451         2.000       
       1   -13297.4362         2.000       

AMS application finished. Exiting.
NORMAL TERMINATION
     Total cpu time:      20.86
  Total system time:       0.25
 Total elapsed time:      21.26
NORMAL TERMINATION
