
 *******************************************************************************
 *                                                                             *
 *  --------------------------------                                           *
 *   Amsterdam Modeling Suite (AMS)              2026.103                      *
 *  --------------------------------                                           *
 *                                               r260501 2026-05-01 873454b5   *
 *                                                                             *
 *                                                                             *
 *                              =================                              *
 *                              |               |                              *
 *                              |     A M S     |                              *
 *                              |               |                              *
 *                              =================                              *
 *                                                                             *
 *                                                                             *
 *   Online information and documentation:  https://www.scm.com/support/       *
 *   E-mail:  support@scm.com   info@scm.com                                   *
 *                                                                             *
 *   Scientific publications using AMS results must be properly referenced     *
 *   See the User Manuals (or the web site) for recommended citations          *
 *   The terms and conditions of the End User License Agreement apply to       *
 *   the use of AMS, https://www.scm.com/license-terms/                        *
 *                                                                             *
 **********************  x86_64_linux_intel / intelmpi  ************************
 
 Licensed to: Jong-June Jeon / University of Seoul 2026-06-02 13:44:15
 SCM User ID: u30731
  
 AMS 2026.103  RunTime: Jun03-2026 01:43:06  ShM Nodes: 1  Procs: 1

 AMS jobname: c2_fragB_ts
 AMS jobid  : 1671186508

 Start   directory: /gpfs/home1/yeseo1ee/projects/eda-asm-prediction/ADF_800/adf_outputs/batch_000/dipolar_000637/
 Results directory: /gpfs/home1/yeseo1ee/projects/eda-asm-prediction/ADF_800/adf_outputs/batch_000/dipolar_000637/c2_fragB_ts.results/
 Scratch directory: /tmp/amstmp_c2_fragB_ts_kid0.1671186508/

 RNG seed: -1684515530 -750151857 -296598126 109127048 -798231841 1454002429 420440195 -1175968858



                      ************************************************************************
                      *  ADF 2026.103  RunTime: Jun03-2026 01:43:06  ShM Nodes: 1  Procs: 1  *
                      ************************************************************************
  

       ****************************
       * SINGLE POINT CALCULATION *
       ****************************

--------
Geometry
--------
Formula: C5H9N3O3
Atoms
  Index Symbol   x (angstrom)   y (angstrom)   z (angstrom)
      1      C    -1.70586000    -3.27463000     1.43242000
      2      N    -1.02912000    -2.46168000     0.44177000
      3      C    -1.71347000    -1.84163000    -0.52621000
      4      O    -2.93979000    -1.91482000    -0.68347000
      5      C    -0.95845000    -1.01538000    -1.51887000
      6      O     0.31549000    -0.88897000    -1.65621000
      7      N     1.10534000    -1.05961000    -0.57727000
      8      C     2.41686000    -0.69685000    -0.94913000
      9      O     2.73671000    -0.18027000    -2.02008000
     10      N     3.28259000    -0.97925000     0.04880000
     11      C     4.65460000    -0.51745000     0.01067000
     12      H    -0.95607000    -3.72497000     2.09337000
     13      H    -2.39805000    -2.66580000     2.03692000
     14      H    -2.28906000    -4.07529000     0.95262000
     15      H    -0.03270000    -2.24543000     0.51239000
     16      H    -1.50917000    -0.71968000    -2.41438000
     17      H     2.91431000    -1.37806000     0.90604000
     18      H     5.14562000    -0.83522000    -0.92107000
     19      H     5.19803000    -0.94755000     0.86071000
     20      H     4.71789000     0.58274000     0.07016000

Total System Charge              0.00000


----------------
ADF Engine Input
----------------
 
   Basis
     Type TZ2P
     Core None
   End
   XC
     GGA BLYP
     Dispersion GRIMME3 BJDAMP
   End
   Symmetry NOSYM
   NumericalQuality Normal
   Unrestricted No
   SCF
     Iterations 200
     Converge 1.0e-6
   End
   Save TAPE21
 

 Title: *** (NO TITLE) ***

 *** adf ***



 ===========================
 A T T A C H E D   F I L E S
 ===========================
  



 ===============================
 M O D E L   P A R A M E T E R S
 ===============================
  
 DENSITY FUNCTIONAL POTENTIAL (scf)
    LDA:                               Exchange only                           == Not Default ==
    Gradient Corrections:              Becke88 LYP                             == Not Default ==

 SPIN  (restricted / unrestr.)
    Molecule:                          Restricted                               
    Fragments:                         Restricted                               

 OTHER ASPECTS
    Relativistic Corrections:          scalar (ZORA,MAPA)                       

    Nuclear Charge Density Model:      Point Charge Nuclei                      
    Core Treatment:                    Frozen Orbital(s)                        

    Hyperfine or Zeeman Interaction:   ---                                      

 Settings for Grimme D3 dispersion correction

      damping                        BJ
      s6                          1.000
      s8                          2.700
      a1                          0.430
      a2                          4.236

 Other (technical) parameters

      alpha                      14.000
      version                         4
 


 Fragment File(s)
 ----------------
 C:
         file : /gpfs/home1/yeseo1ee/projects/eda-asm-prediction/ADF_800/adf_outputs/batch_000/dipolar_000637/c2_fragB_ts.results/t21.50BA88D5.C
         jobid: 0
         title: Carbon (TZ2P)
 N:
         file : /gpfs/home1/yeseo1ee/projects/eda-asm-prediction/ADF_800/adf_outputs/batch_000/dipolar_000637/c2_fragB_ts.results/t21.44EAA48D.N
         jobid: 0
         title: Nitrogen (TZ2P)
 O:
         file : /gpfs/home1/yeseo1ee/projects/eda-asm-prediction/ADF_800/adf_outputs/batch_000/dipolar_000637/c2_fragB_ts.results/t21.6E90ABAE.O
         jobid: 0
         title: Oxygen (TZ2P)
 H:
         file : /gpfs/home1/yeseo1ee/projects/eda-asm-prediction/ADF_800/adf_outputs/batch_000/dipolar_000637/c2_fragB_ts.results/t21.6F35CCAB.H
         jobid: 0
         title: Hydrogen (TZ2P)



 ===============
 G E O M E T R Y  ***  3D  Molecule  ***
 ===============
  

 ATOMS
 =====                            X Y Z                    CHARGE
                                (Angstrom)             Nucl     +Core       At.Mass
                       --------------------------    ----------------       -------
    1  C              -1.7059   -3.2746    1.4324      6.00      6.00       12.0000
    2  N              -1.0291   -2.4617    0.4418      7.00      7.00       14.0031
    3  C              -1.7135   -1.8416   -0.5262      6.00      6.00       12.0000
    4  O              -2.9398   -1.9148   -0.6835      8.00      8.00       15.9949
    5  C              -0.9585   -1.0154   -1.5189      6.00      6.00       12.0000
    6  O               0.3155   -0.8890   -1.6562      8.00      8.00       15.9949
    7  N               1.1053   -1.0596   -0.5773      7.00      7.00       14.0031
    8  C               2.4169   -0.6968   -0.9491      6.00      6.00       12.0000
    9  O               2.7367   -0.1803   -2.0201      8.00      8.00       15.9949
   10  N               3.2826   -0.9792    0.0488      7.00      7.00       14.0031
   11  C               4.6546   -0.5174    0.0107      6.00      6.00       12.0000
   12  H              -0.9561   -3.7250    2.0934      1.00      1.00        1.0078
   13  H              -2.3981   -2.6658    2.0369      1.00      1.00        1.0078
   14  H              -2.2891   -4.0753    0.9526      1.00      1.00        1.0078
   15  H              -0.0327   -2.2454    0.5124      1.00      1.00        1.0078
   16  H              -1.5092   -0.7197   -2.4144      1.00      1.00        1.0078
   17  H               2.9143   -1.3781    0.9060      1.00      1.00        1.0078
   18  H               5.1456   -0.8352   -0.9211      1.00      1.00        1.0078
   19  H               5.1980   -0.9476    0.8607      1.00      1.00        1.0078
   20  H               4.7179    0.5827    0.0702      1.00      1.00        1.0078


 FRAGMENTS
 =========                                     Atoms in this Fragment     Cart. coord.s (Angstrom)
                                               -------------------------------------------------------
    1  C                                                 1  C           -1.7059   -3.2746    1.4324
    2  C                                                 3  C           -1.7135   -1.8416   -0.5262
    3  C                                                 5  C           -0.9585   -1.0154   -1.5189
    4  C                                                 8  C            2.4169   -0.6968   -0.9491
    5  C                                                11  C            4.6546   -0.5174    0.0107
    6  N                                                 2  N           -1.0291   -2.4617    0.4418
    7  N                                                 7  N            1.1053   -1.0596   -0.5773
    8  N                                                10  N            3.2826   -0.9792    0.0488
    9  O                                                 4  O           -2.9398   -1.9148   -0.6835
   10  O                                                 6  O            0.3155   -0.8890   -1.6562
   11  O                                                 9  O            2.7367   -0.1803   -2.0201
   12  H                                                12  H           -0.9561   -3.7250    2.0934
   13  H                                                13  H           -2.3981   -2.6658    2.0369
   14  H                                                14  H           -2.2891   -4.0753    0.9526
   15  H                                                15  H           -0.0327   -2.2454    0.5124
   16  H                                                16  H           -1.5092   -0.7197   -2.4144
   17  H                                                17  H            2.9143   -1.3781    0.9060
   18  H                                                18  H            5.1456   -0.8352   -0.9211
   19  H                                                19  H            5.1980   -0.9476    0.8607
   20  H                                                20  H            4.7179    0.5827    0.0702



 =====================================
 S Y M M E T R Y ,   E L E C T R O N S
 =====================================
  
 Symmetry: NOSYM

 Irreducible Representations, including subspecies
 -------------------------------------------------
 A


 Configuration of Valence Electrons
 ==================================
 ( determined in the SCF procedure )

 Total:   84

 Net Charge: 0 (Nuclei minus Electrons)

 Aufbau principle for MO occupations will be applied through SCF cycle no.     100
 Thereafter, the program will assign electrons to MOs that are spatially
 similar to the occupied MOs in a "reference" cycle ("KeepOrbitals").
 The reference cycle is always the PREVIOUS cycle: it will evolve with
 the SCF procedure.
 ***************************************************************************************************



                                      ****************************************
                                      *  B U I L D : (Fragments, Functions)  *
                                      ****************************************
  



 =======
 S F O s  ***  (Symmetrized Fragment Orbitals)  ***
 =======
  
 SFOs are linear combinations of (valence) Fragment Orbitals (FOs), such that the SFOs transform as the
 irreducible representations of the (molecular) symmetry group. Each SFO is therefore characterized by
 an irrep of the molecule and by a few (or only one) generating FOs.
 The SFOs constitute a symmetry-adapted basis for the Fock matrix. The MO eigenvector coefficients in
 this basis provide a direct interpretation of the MOs in terms of Frontier Orbital Theory.

 The SFOs are combined with auxiliary Core Functions (CFs) to ensure orthogonalization on the (frozen)
 Core Orbitals (COs). The Core-orthogonalized SFOs (CSFOs) constitute the true Fock basis.

 The FOs, and hence also the (C)SFOs are combinations of the elementary basis functions (BAS). The basis
 functions that participate in the description of the SFOs depend on the irrep. The indices of the
 involved functions are printed below for each irrep.
 (The complete list of primitive basis functions is printed in another section)

 Total nr. of (C)SFOs (summation over all irreps) :   385

 NOTE: a (C)SFO that is defined as a combination of more than one FO is usually NOT normalized.



                                       === A ===
 Nr. of SFOs :  385
 Cartesian basis functions that participate in this irrep (total number =   438) :
      1     2     3     4     5     6     9    12     7    10
     13     8    11    14    15    16    17    18    19    20
     21    22    23    24    25    26    27    28    29    30
     31    32    33    34    35    36    39    42    37    40
     43    38    41    44    45    46    47    48    49    50
     51    52    53    54    55    56    57    58    59    60
     61    62    63    64    65    66    69    72    67    70
     73    68    71    74    75    76    77    78    79    80
     81    82    83    84    85    86    87    88    89    90
     91    92    93    94    95    96    99   102    97   100
    103    98   101   104   105   106   107   108   109   110
    111   112   113   114   115   116   117   118   119   120
    121   122   123   124   125   126   129   132   127   130
    133   128   131   134   135   136   137   138   139   140
    141   142   143   144   145   146   147   148   149   150
    151   152   153   154   155   156   159   162   157   160
    163   158   161   164   165   166   167   168   169   170
    171   172   173   174   175   176   177   178   179   180
    181   182   183   184   185   186   189   192   187   190
    193   188   191   194   195   196   197   198   199   200
    201   202   203   204   205   206   207   208   209   210
    211   212   213   214   215   216   219   222   217   220
    223   218   221   224   225   226   227   228   229   230
    231   232   233   234   235   236   237   238   239   240
    241   242   243   244   245   246   249   252   247   250
    253   248   251   254   255   256   257   258   259   260
    261   262   263   264   265   266   267   268   269   270
    271   272   273   274   275   276   279   282   277   280
    283   278   281   284   285   286   287   288   289   290
    291   292   293   294   295   296   297   298   299   300
    301   302   303   304   305   306   309   312   307   310
    313   308   311   314   315   316   317   318   319   320
    321   322   323   324   325   326   327   328   329   330
    331   332   333   334   335   336   337   338   339   340
    341   342   343   344   345   346   347   348   349   350
    351   352   353   354   355   356   357   358   359   360
    361   362   363   364   365   366   367   368   369   370
    371   372   373   374   375   376   377   378   379   380
    381   382   383   384   385   386   387   388   389   390
    391   392   393   394   395   396   397   398   399   400
    401   402   403   404   405   406   407   408   409   410
    411   412   413   414   415   416   417   418   419   420
    421   422   423   424   425   426   427   428   429   430
    431   432   433   434   435   436   437   438

    SFO  (index         Fragment          Generating    Expansion in Fragment Orbitals
  indx  incl.CFs)   Occup   Orb.Energy   FragmentType  Coeff.   Orbital     on Fragment
 --------------------------------------------------------------------------------------
     1       1      2.000     -10.066 au  C             1.00      1 S               1
                        (    -273.921 eV)
     2       2      2.000      -0.501 au  C             1.00      2 S               1
                        (     -13.620 eV)
     3       3       --         0.373 au  C             1.00      3 S               1
                        (      10.158 eV)
     4       4       --         5.405 au  C             1.00      4 S               1
                        (     147.073 eV)
     5       5       --        49.848 au  C             1.00      5 S               1
                        (    1356.422 eV)
     6       6      0.667      -0.193 au  C             1.00      1 P:x             1
                        (      -5.239 eV)
     7       7       --         0.169 au  C             1.00      2 P:x             1
                        (       4.589 eV)
     8       8       --         2.013 au  C             1.00      3 P:x             1
                        (      54.789 eV)
     9       9      0.667      -0.193 au  C             1.00      1 P:y             1
                        (      -5.239 eV)
    10      10       --         0.169 au  C             1.00      2 P:y             1
                        (       4.589 eV)
    11      11       --         2.013 au  C             1.00      3 P:y             1
                        (      54.789 eV)
    12      12      0.667      -0.193 au  C             1.00      1 P:z             1
                        (      -5.239 eV)
    13      13       --         0.169 au  C             1.00      2 P:z             1
                        (       4.589 eV)
    14      14       --         2.013 au  C             1.00      3 P:z             1
                        (      54.789 eV)
    15      15       --         1.243 au  C             1.00      1 D:z2            1
                        (      33.824 eV)
    16      16       --         1.243 au  C             1.00      1 D:x2-y2         1
                        (      33.824 eV)
    17      17       --         1.243 au  C             1.00      1 D:xy            1
                        (      33.824 eV)
    18      18       --         1.243 au  C             1.00      1 D:xz            1
                        (      33.824 eV)
    19      19       --         1.243 au  C             1.00      1 D:yz            1
                        (      33.824 eV)
    20      20       --         4.016 au  C             1.00      1 F:z3            1
                        (     109.271 eV)
    21      21       --         4.016 au  C             1.00      1 F:z             1
                        (     109.271 eV)
    22      22       --         4.016 au  C             1.00      1 F:xyz           1
                        (     109.271 eV)
    23      23       --         4.016 au  C             1.00      1 F:z2x           1
                        (     109.271 eV)
    24      24       --         4.016 au  C             1.00      1 F:z2y           1
                        (     109.271 eV)
    25      25       --         4.016 au  C             1.00      1 F:x             1
                        (     109.271 eV)
    26      26       --         4.016 au  C             1.00      1 F:y             1
                        (     109.271 eV)
    27      27      2.000     -10.066 au  C             1.00      1 S               2
                        (    -273.921 eV)
    28      28      2.000      -0.501 au  C             1.00      2 S               2
                        (     -13.620 eV)
    29      29       --         0.373 au  C             1.00      3 S               2
                        (      10.158 eV)
    30      30       --         5.405 au  C             1.00      4 S               2
                        (     147.073 eV)
    31      31       --        49.848 au  C             1.00      5 S               2
                        (    1356.422 eV)
    32      32      0.667      -0.193 au  C             1.00      1 P:x             2
                        (      -5.239 eV)
    33      33       --         0.169 au  C             1.00      2 P:x             2
                        (       4.589 eV)
    34      34       --         2.013 au  C             1.00      3 P:x             2
                        (      54.789 eV)
    35      35      0.667      -0.193 au  C             1.00      1 P:y             2
                        (      -5.239 eV)
    36      36       --         0.169 au  C             1.00      2 P:y             2
                        (       4.589 eV)
    37      37       --         2.013 au  C             1.00      3 P:y             2
                        (      54.789 eV)
    38      38      0.667      -0.193 au  C             1.00      1 P:z             2
                        (      -5.239 eV)
    39      39       --         0.169 au  C             1.00      2 P:z             2
                        (       4.589 eV)
    40      40       --         2.013 au  C             1.00      3 P:z             2
                        (      54.789 eV)
    41      41       --         1.243 au  C             1.00      1 D:z2            2
                        (      33.824 eV)
    42      42       --         1.243 au  C             1.00      1 D:x2-y2         2
                        (      33.824 eV)
    43      43       --         1.243 au  C             1.00      1 D:xy            2
                        (      33.824 eV)
    44      44       --         1.243 au  C             1.00      1 D:xz            2
                        (      33.824 eV)
    45      45       --         1.243 au  C             1.00      1 D:yz            2
                        (      33.824 eV)
    46      46       --         4.016 au  C             1.00      1 F:z3            2
                        (     109.271 eV)
    47      47       --         4.016 au  C             1.00      1 F:z             2
                        (     109.271 eV)
    48      48       --         4.016 au  C             1.00      1 F:xyz           2
                        (     109.271 eV)
    49      49       --         4.016 au  C             1.00      1 F:z2x           2
                        (     109.271 eV)
    50      50       --         4.016 au  C             1.00      1 F:z2y           2
                        (     109.271 eV)
    51      51       --         4.016 au  C             1.00      1 F:x             2
                        (     109.271 eV)
    52      52       --         4.016 au  C             1.00      1 F:y             2
                        (     109.271 eV)
    53      53      2.000     -10.066 au  C             1.00      1 S               3
                        (    -273.921 eV)
    54      54      2.000      -0.501 au  C             1.00      2 S               3
                        (     -13.620 eV)
    55      55       --         0.373 au  C             1.00      3 S               3
                        (      10.158 eV)
    56      56       --         5.405 au  C             1.00      4 S               3
                        (     147.073 eV)
    57      57       --        49.848 au  C             1.00      5 S               3
                        (    1356.422 eV)
    58      58      0.667      -0.193 au  C             1.00      1 P:x             3
                        (      -5.239 eV)
    59      59       --         0.169 au  C             1.00      2 P:x             3
                        (       4.589 eV)
    60      60       --         2.013 au  C             1.00      3 P:x             3
                        (      54.789 eV)
    61      61      0.667      -0.193 au  C             1.00      1 P:y             3
                        (      -5.239 eV)
    62      62       --         0.169 au  C             1.00      2 P:y             3
                        (       4.589 eV)
    63      63       --         2.013 au  C             1.00      3 P:y             3
                        (      54.789 eV)
    64      64      0.667      -0.193 au  C             1.00      1 P:z             3
                        (      -5.239 eV)
    65      65       --         0.169 au  C             1.00      2 P:z             3
                        (       4.589 eV)
    66      66       --         2.013 au  C             1.00      3 P:z             3
                        (      54.789 eV)
    67      67       --         1.243 au  C             1.00      1 D:z2            3
                        (      33.824 eV)
    68      68       --         1.243 au  C             1.00      1 D:x2-y2         3
                        (      33.824 eV)
    69      69       --         1.243 au  C             1.00      1 D:xy            3
                        (      33.824 eV)
    70      70       --         1.243 au  C             1.00      1 D:xz            3
                        (      33.824 eV)
    71      71       --         1.243 au  C             1.00      1 D:yz            3
                        (      33.824 eV)
    72      72       --         4.016 au  C             1.00      1 F:z3            3
                        (     109.271 eV)
    73      73       --         4.016 au  C             1.00      1 F:z             3
                        (     109.271 eV)
    74      74       --         4.016 au  C             1.00      1 F:xyz           3
                        (     109.271 eV)
    75      75       --         4.016 au  C             1.00      1 F:z2x           3
                        (     109.271 eV)
    76      76       --         4.016 au  C             1.00      1 F:z2y           3
                        (     109.271 eV)
    77      77       --         4.016 au  C             1.00      1 F:x             3
                        (     109.271 eV)
    78      78       --         4.016 au  C             1.00      1 F:y             3
                        (     109.271 eV)
    79      79      2.000     -10.066 au  C             1.00      1 S               4
                        (    -273.921 eV)
    80      80      2.000      -0.501 au  C             1.00      2 S               4
                        (     -13.620 eV)
    81      81       --         0.373 au  C             1.00      3 S               4
                        (      10.158 eV)
    82      82       --         5.405 au  C             1.00      4 S               4
                        (     147.073 eV)
    83      83       --        49.848 au  C             1.00      5 S               4
                        (    1356.422 eV)
    84      84      0.667      -0.193 au  C             1.00      1 P:x             4
                        (      -5.239 eV)
    85      85       --         0.169 au  C             1.00      2 P:x             4
                        (       4.589 eV)
    86      86       --         2.013 au  C             1.00      3 P:x             4
                        (      54.789 eV)
    87      87      0.667      -0.193 au  C             1.00      1 P:y             4
                        (      -5.239 eV)
    88      88       --         0.169 au  C             1.00      2 P:y             4
                        (       4.589 eV)
    89      89       --         2.013 au  C             1.00      3 P:y             4
                        (      54.789 eV)
    90      90      0.667      -0.193 au  C             1.00      1 P:z             4
                        (      -5.239 eV)
    91      91       --         0.169 au  C             1.00      2 P:z             4
                        (       4.589 eV)
    92      92       --         2.013 au  C             1.00      3 P:z             4
                        (      54.789 eV)
    93      93       --         1.243 au  C             1.00      1 D:z2            4
                        (      33.824 eV)
    94      94       --         1.243 au  C             1.00      1 D:x2-y2         4
                        (      33.824 eV)
    95      95       --         1.243 au  C             1.00      1 D:xy            4
                        (      33.824 eV)
    96      96       --         1.243 au  C             1.00      1 D:xz            4
                        (      33.824 eV)
    97      97       --         1.243 au  C             1.00      1 D:yz            4
                        (      33.824 eV)
    98      98       --         4.016 au  C             1.00      1 F:z3            4
                        (     109.271 eV)
    99      99       --         4.016 au  C             1.00      1 F:z             4
                        (     109.271 eV)
   100     100       --         4.016 au  C             1.00      1 F:xyz           4
                        (     109.271 eV)
   101     101       --         4.016 au  C             1.00      1 F:z2x           4
                        (     109.271 eV)
   102     102       --         4.016 au  C             1.00      1 F:z2y           4
                        (     109.271 eV)
   103     103       --         4.016 au  C             1.00      1 F:x             4
                        (     109.271 eV)
   104     104       --         4.016 au  C             1.00      1 F:y             4
                        (     109.271 eV)
   105     105      2.000     -10.066 au  C             1.00      1 S               5
                        (    -273.921 eV)
   106     106      2.000      -0.501 au  C             1.00      2 S               5
                        (     -13.620 eV)
   107     107       --         0.373 au  C             1.00      3 S               5
                        (      10.158 eV)
   108     108       --         5.405 au  C             1.00      4 S               5
                        (     147.073 eV)
   109     109       --        49.848 au  C             1.00      5 S               5
                        (    1356.422 eV)
   110     110      0.667      -0.193 au  C             1.00      1 P:x             5
                        (      -5.239 eV)
   111     111       --         0.169 au  C             1.00      2 P:x             5
                        (       4.589 eV)
   112     112       --         2.013 au  C             1.00      3 P:x             5
                        (      54.789 eV)
   113     113      0.667      -0.193 au  C             1.00      1 P:y             5
                        (      -5.239 eV)
   114     114       --         0.169 au  C             1.00      2 P:y             5
                        (       4.589 eV)
   115     115       --         2.013 au  C             1.00      3 P:y             5
                        (      54.789 eV)
   116     116      0.667      -0.193 au  C             1.00      1 P:z             5
                        (      -5.239 eV)
   117     117       --         0.169 au  C             1.00      2 P:z             5
                        (       4.589 eV)
   118     118       --         2.013 au  C             1.00      3 P:z             5
                        (      54.789 eV)
   119     119       --         1.243 au  C             1.00      1 D:z2            5
                        (      33.824 eV)
   120     120       --         1.243 au  C             1.00      1 D:x2-y2         5
                        (      33.824 eV)
   121     121       --         1.243 au  C             1.00      1 D:xy            5
                        (      33.824 eV)
   122     122       --         1.243 au  C             1.00      1 D:xz            5
                        (      33.824 eV)
   123     123       --         1.243 au  C             1.00      1 D:yz            5
                        (      33.824 eV)
   124     124       --         4.016 au  C             1.00      1 F:z3            5
                        (     109.271 eV)
   125     125       --         4.016 au  C             1.00      1 F:z             5
                        (     109.271 eV)
   126     126       --         4.016 au  C             1.00      1 F:xyz           5
                        (     109.271 eV)
   127     127       --         4.016 au  C             1.00      1 F:z2x           5
                        (     109.271 eV)
   128     128       --         4.016 au  C             1.00      1 F:z2y           5
                        (     109.271 eV)
   129     129       --         4.016 au  C             1.00      1 F:x             5
                        (     109.271 eV)
   130     130       --         4.016 au  C             1.00      1 F:y             5
                        (     109.271 eV)
   131     131      2.000     -14.160 au  N             1.00      1 S               6
                        (    -385.319 eV)
   132     132      2.000      -0.678 au  N             1.00      2 S               6
                        (     -18.450 eV)
   133     133       --         0.517 au  N             1.00      3 S               6
                        (      14.073 eV)
   134     134       --         6.872 au  N             1.00      4 S               6
                        (     186.990 eV)
   135     135       --        63.432 au  N             1.00      5 S               6
                        (    1726.082 eV)
   136     136      1.000      -0.260 au  N             1.00      1 P:x             6
                        (      -7.062 eV)
   137     137       --         0.281 au  N             1.00      2 P:x             6
                        (       7.649 eV)
   138     138       --         3.275 au  N             1.00      3 P:x             6
                        (      89.105 eV)
   139     139      1.000      -0.260 au  N             1.00      1 P:y             6
                        (      -7.062 eV)
   140     140       --         0.281 au  N             1.00      2 P:y             6
                        (       7.649 eV)
   141     141       --         3.275 au  N             1.00      3 P:y             6
                        (      89.105 eV)
   142     142      1.000      -0.260 au  N             1.00      1 P:z             6
                        (      -7.062 eV)
   143     143       --         0.281 au  N             1.00      2 P:z             6
                        (       7.649 eV)
   144     144       --         3.275 au  N             1.00      3 P:z             6
                        (      89.105 eV)
   145     145       --         1.250 au  N             1.00      1 D:z2            6
                        (      34.005 eV)
   146     146       --         1.250 au  N             1.00      1 D:x2-y2         6
                        (      34.005 eV)
   147     147       --         1.250 au  N             1.00      1 D:xy            6
                        (      34.005 eV)
   148     148       --         1.250 au  N             1.00      1 D:xz            6
                        (      34.005 eV)
   149     149       --         1.250 au  N             1.00      1 D:yz            6
                        (      34.005 eV)
   150     150       --         4.013 au  N             1.00      1 F:z3            6
                        (     109.190 eV)
   151     151       --         4.013 au  N             1.00      1 F:z             6
                        (     109.190 eV)
   152     152       --         4.013 au  N             1.00      1 F:xyz           6
                        (     109.190 eV)
   153     153       --         4.013 au  N             1.00      1 F:z2x           6
                        (     109.190 eV)
   154     154       --         4.013 au  N             1.00      1 F:z2y           6
                        (     109.190 eV)
   155     155       --         4.013 au  N             1.00      1 F:x             6
                        (     109.190 eV)
   156     156       --         4.013 au  N             1.00      1 F:y             6
                        (     109.190 eV)
   157     157      2.000     -14.160 au  N             1.00      1 S               7
                        (    -385.319 eV)
   158     158      2.000      -0.678 au  N             1.00      2 S               7
                        (     -18.450 eV)
   159     159       --         0.517 au  N             1.00      3 S               7
                        (      14.073 eV)
   160     160       --         6.872 au  N             1.00      4 S               7
                        (     186.990 eV)
   161     161       --        63.432 au  N             1.00      5 S               7
                        (    1726.082 eV)
   162     162      1.000      -0.260 au  N             1.00      1 P:x             7
                        (      -7.062 eV)
   163     163       --         0.281 au  N             1.00      2 P:x             7
                        (       7.649 eV)
   164     164       --         3.275 au  N             1.00      3 P:x             7
                        (      89.105 eV)
   165     165      1.000      -0.260 au  N             1.00      1 P:y             7
                        (      -7.062 eV)
   166     166       --         0.281 au  N             1.00      2 P:y             7
                        (       7.649 eV)
   167     167       --         3.275 au  N             1.00      3 P:y             7
                        (      89.105 eV)
   168     168      1.000      -0.260 au  N             1.00      1 P:z             7
                        (      -7.062 eV)
   169     169       --         0.281 au  N             1.00      2 P:z             7
                        (       7.649 eV)
   170     170       --         3.275 au  N             1.00      3 P:z             7
                        (      89.105 eV)
   171     171       --         1.250 au  N             1.00      1 D:z2            7
                        (      34.005 eV)
   172     172       --         1.250 au  N             1.00      1 D:x2-y2         7
                        (      34.005 eV)
   173     173       --         1.250 au  N             1.00      1 D:xy            7
                        (      34.005 eV)
   174     174       --         1.250 au  N             1.00      1 D:xz            7
                        (      34.005 eV)
   175     175       --         1.250 au  N             1.00      1 D:yz            7
                        (      34.005 eV)
   176     176       --         4.013 au  N             1.00      1 F:z3            7
                        (     109.190 eV)
   177     177       --         4.013 au  N             1.00      1 F:z             7
                        (     109.190 eV)
   178     178       --         4.013 au  N             1.00      1 F:xyz           7
                        (     109.190 eV)
   179     179       --         4.013 au  N             1.00      1 F:z2x           7
                        (     109.190 eV)
   180     180       --         4.013 au  N             1.00      1 F:z2y           7
                        (     109.190 eV)
   181     181       --         4.013 au  N             1.00      1 F:x             7
                        (     109.190 eV)
   182     182       --         4.013 au  N             1.00      1 F:y             7
                        (     109.190 eV)
   183     183      2.000     -14.160 au  N             1.00      1 S               8
                        (    -385.319 eV)
   184     184      2.000      -0.678 au  N             1.00      2 S               8
                        (     -18.450 eV)
   185     185       --         0.517 au  N             1.00      3 S               8
                        (      14.073 eV)
   186     186       --         6.872 au  N             1.00      4 S               8
                        (     186.990 eV)
   187     187       --        63.432 au  N             1.00      5 S               8
                        (    1726.082 eV)
   188     188      1.000      -0.260 au  N             1.00      1 P:x             8
                        (      -7.062 eV)
   189     189       --         0.281 au  N             1.00      2 P:x             8
                        (       7.649 eV)
   190     190       --         3.275 au  N             1.00      3 P:x             8
                        (      89.105 eV)
   191     191      1.000      -0.260 au  N             1.00      1 P:y             8
                        (      -7.062 eV)
   192     192       --         0.281 au  N             1.00      2 P:y             8
                        (       7.649 eV)
   193     193       --         3.275 au  N             1.00      3 P:y             8
                        (      89.105 eV)
   194     194      1.000      -0.260 au  N             1.00      1 P:z             8
                        (      -7.062 eV)
   195     195       --         0.281 au  N             1.00      2 P:z             8
                        (       7.649 eV)
   196     196       --         3.275 au  N             1.00      3 P:z             8
                        (      89.105 eV)
   197     197       --         1.250 au  N             1.00      1 D:z2            8
                        (      34.005 eV)
   198     198       --         1.250 au  N             1.00      1 D:x2-y2         8
                        (      34.005 eV)
   199     199       --         1.250 au  N             1.00      1 D:xy            8
                        (      34.005 eV)
   200     200       --         1.250 au  N             1.00      1 D:xz            8
                        (      34.005 eV)
   201     201       --         1.250 au  N             1.00      1 D:yz            8
                        (      34.005 eV)
   202     202       --         4.013 au  N             1.00      1 F:z3            8
                        (     109.190 eV)
   203     203       --         4.013 au  N             1.00      1 F:z             8
                        (     109.190 eV)
   204     204       --         4.013 au  N             1.00      1 F:xyz           8
                        (     109.190 eV)
   205     205       --         4.013 au  N             1.00      1 F:z2x           8
                        (     109.190 eV)
   206     206       --         4.013 au  N             1.00      1 F:z2y           8
                        (     109.190 eV)
   207     207       --         4.013 au  N             1.00      1 F:x             8
                        (     109.190 eV)
   208     208       --         4.013 au  N             1.00      1 F:y             8
                        (     109.190 eV)
   209     209      2.000     -18.941 au  O             1.00      1 S               9
                        (    -515.403 eV)
   210     210      2.000      -0.876 au  O             1.00      2 S               9
                        (     -23.838 eV)
   211     211       --         0.791 au  O             1.00      3 S               9
                        (      21.524 eV)
   212     212       --        13.422 au  O             1.00      4 S               9
                        (     365.226 eV)
   213     213       --       121.561 au  O             1.00      5 S               9
                        (    3307.838 eV)
   214     214      1.333      -0.331 au  O             1.00      1 P:x             9
                        (      -9.020 eV)
   215     215       --         0.347 au  O             1.00      2 P:x             9
                        (       9.437 eV)
   216     216       --         3.820 au  O             1.00      3 P:x             9
                        (     103.939 eV)
   217     217      1.333      -0.331 au  O             1.00      1 P:y             9
                        (      -9.020 eV)
   218     218       --         0.347 au  O             1.00      2 P:y             9
                        (       9.437 eV)
   219     219       --         3.820 au  O             1.00      3 P:y             9
                        (     103.939 eV)
   220     220      1.333      -0.331 au  O             1.00      1 P:z             9
                        (      -9.020 eV)
   221     221       --         0.347 au  O             1.00      2 P:z             9
                        (       9.437 eV)
   222     222       --         3.820 au  O             1.00      3 P:z             9
                        (     103.939 eV)
   223     223       --         1.071 au  O             1.00      1 D:z2            9
                        (      29.134 eV)
   224     224       --         1.071 au  O             1.00      1 D:x2-y2         9
                        (      29.134 eV)
   225     225       --         1.071 au  O             1.00      1 D:xy            9
                        (      29.134 eV)
   226     226       --         1.071 au  O             1.00      1 D:xz            9
                        (      29.134 eV)
   227     227       --         1.071 au  O             1.00      1 D:yz            9
                        (      29.134 eV)
   228     228       --         3.359 au  O             1.00      1 F:z3            9
                        (      91.410 eV)
   229     229       --         3.359 au  O             1.00      1 F:z             9
                        (      91.410 eV)
   230     230       --         3.359 au  O             1.00      1 F:xyz           9
                        (      91.410 eV)
   231     231       --         3.359 au  O             1.00      1 F:z2x           9
                        (      91.410 eV)
   232     232       --         3.359 au  O             1.00      1 F:z2y           9
                        (      91.410 eV)
   233     233       --         3.359 au  O             1.00      1 F:x             9
                        (      91.410 eV)
   234     234       --         3.359 au  O             1.00      1 F:y             9
                        (      91.410 eV)
   235     235      2.000     -18.941 au  O             1.00      1 S              10
                        (    -515.403 eV)
   236     236      2.000      -0.876 au  O             1.00      2 S              10
                        (     -23.838 eV)
   237     237       --         0.791 au  O             1.00      3 S              10
                        (      21.524 eV)
   238     238       --        13.422 au  O             1.00      4 S              10
                        (     365.226 eV)
   239     239       --       121.561 au  O             1.00      5 S              10
                        (    3307.838 eV)
   240     240      1.333      -0.331 au  O             1.00      1 P:x            10
                        (      -9.020 eV)
   241     241       --         0.347 au  O             1.00      2 P:x            10
                        (       9.437 eV)
   242     242       --         3.820 au  O             1.00      3 P:x            10
                        (     103.939 eV)
   243     243      1.333      -0.331 au  O             1.00      1 P:y            10
                        (      -9.020 eV)
   244     244       --         0.347 au  O             1.00      2 P:y            10
                        (       9.437 eV)
   245     245       --         3.820 au  O             1.00      3 P:y            10
                        (     103.939 eV)
   246     246      1.333      -0.331 au  O             1.00      1 P:z            10
                        (      -9.020 eV)
   247     247       --         0.347 au  O             1.00      2 P:z            10
                        (       9.437 eV)
   248     248       --         3.820 au  O             1.00      3 P:z            10
                        (     103.939 eV)
   249     249       --         1.071 au  O             1.00      1 D:z2           10
                        (      29.134 eV)
   250     250       --         1.071 au  O             1.00      1 D:x2-y2        10
                        (      29.134 eV)
   251     251       --         1.071 au  O             1.00      1 D:xy           10
                        (      29.134 eV)
   252     252       --         1.071 au  O             1.00      1 D:xz           10
                        (      29.134 eV)
   253     253       --         1.071 au  O             1.00      1 D:yz           10
                        (      29.134 eV)
   254     254       --         3.359 au  O             1.00      1 F:z3           10
                        (      91.410 eV)
   255     255       --         3.359 au  O             1.00      1 F:z            10
                        (      91.410 eV)
   256     256       --         3.359 au  O             1.00      1 F:xyz          10
                        (      91.410 eV)
   257     257       --         3.359 au  O             1.00      1 F:z2x          10
                        (      91.410 eV)
   258     258       --         3.359 au  O             1.00      1 F:z2y          10
                        (      91.410 eV)
   259     259       --         3.359 au  O             1.00      1 F:x            10
                        (      91.410 eV)
   260     260       --         3.359 au  O             1.00      1 F:y            10
                        (      91.410 eV)
   261     261      2.000     -18.941 au  O             1.00      1 S              11
                        (    -515.403 eV)
   262     262      2.000      -0.876 au  O             1.00      2 S              11
                        (     -23.838 eV)
   263     263       --         0.791 au  O             1.00      3 S              11
                        (      21.524 eV)
   264     264       --        13.422 au  O             1.00      4 S              11
                        (     365.226 eV)
   265     265       --       121.561 au  O             1.00      5 S              11
                        (    3307.838 eV)
   266     266      1.333      -0.331 au  O             1.00      1 P:x            11
                        (      -9.020 eV)
   267     267       --         0.347 au  O             1.00      2 P:x            11
                        (       9.437 eV)
   268     268       --         3.820 au  O             1.00      3 P:x            11
                        (     103.939 eV)
   269     269      1.333      -0.331 au  O             1.00      1 P:y            11
                        (      -9.020 eV)
   270     270       --         0.347 au  O             1.00      2 P:y            11
                        (       9.437 eV)
   271     271       --         3.820 au  O             1.00      3 P:y            11
                        (     103.939 eV)
   272     272      1.333      -0.331 au  O             1.00      1 P:z            11
                        (      -9.020 eV)
   273     273       --         0.347 au  O             1.00      2 P:z            11
                        (       9.437 eV)
   274     274       --         3.820 au  O             1.00      3 P:z            11
                        (     103.939 eV)
   275     275       --         1.071 au  O             1.00      1 D:z2           11
                        (      29.134 eV)
   276     276       --         1.071 au  O             1.00      1 D:x2-y2        11
                        (      29.134 eV)
   277     277       --         1.071 au  O             1.00      1 D:xy           11
                        (      29.134 eV)
   278     278       --         1.071 au  O             1.00      1 D:xz           11
                        (      29.134 eV)
   279     279       --         1.071 au  O             1.00      1 D:yz           11
                        (      29.134 eV)
   280     280       --         3.359 au  O             1.00      1 F:z3           11
                        (      91.410 eV)
   281     281       --         3.359 au  O             1.00      1 F:z            11
                        (      91.410 eV)
   282     282       --         3.359 au  O             1.00      1 F:xyz          11
                        (      91.410 eV)
   283     283       --         3.359 au  O             1.00      1 F:z2x          11
                        (      91.410 eV)
   284     284       --         3.359 au  O             1.00      1 F:z2y          11
                        (      91.410 eV)
   285     285       --         3.359 au  O             1.00      1 F:x            11
                        (      91.410 eV)
   286     286       --         3.359 au  O             1.00      1 F:y            11
                        (      91.410 eV)
   287     287      1.000      -0.240 au  H             1.00      1 S              12
                        (      -6.532 eV)
   288     288       --         0.088 au  H             1.00      2 S              12
                        (       2.394 eV)
   289     289       --         1.502 au  H             1.00      3 S              12
                        (      40.869 eV)
   290     290       --         0.406 au  H             1.00      1 P:x            12
                        (      11.051 eV)
   291     291       --         0.406 au  H             1.00      1 P:y            12
                        (      11.051 eV)
   292     292       --         0.406 au  H             1.00      1 P:z            12
                        (      11.051 eV)
   293     293       --         2.569 au  H             1.00      1 D:z2           12
                        (      69.917 eV)
   294     294       --         2.569 au  H             1.00      1 D:x2-y2        12
                        (      69.917 eV)
   295     295       --         2.569 au  H             1.00      1 D:xy           12
                        (      69.917 eV)
   296     296       --         2.569 au  H             1.00      1 D:xz           12
                        (      69.917 eV)
   297     297       --         2.569 au  H             1.00      1 D:yz           12
                        (      69.917 eV)
   298     298      1.000      -0.240 au  H             1.00      1 S              13
                        (      -6.532 eV)
   299     299       --         0.088 au  H             1.00      2 S              13
                        (       2.394 eV)
   300     300       --         1.502 au  H             1.00      3 S              13
                        (      40.869 eV)
   301     301       --         0.406 au  H             1.00      1 P:x            13
                        (      11.051 eV)
   302     302       --         0.406 au  H             1.00      1 P:y            13
                        (      11.051 eV)
   303     303       --         0.406 au  H             1.00      1 P:z            13
                        (      11.051 eV)
   304     304       --         2.569 au  H             1.00      1 D:z2           13
                        (      69.917 eV)
   305     305       --         2.569 au  H             1.00      1 D:x2-y2        13
                        (      69.917 eV)
   306     306       --         2.569 au  H             1.00      1 D:xy           13
                        (      69.917 eV)
   307     307       --         2.569 au  H             1.00      1 D:xz           13
                        (      69.917 eV)
   308     308       --         2.569 au  H             1.00      1 D:yz           13
                        (      69.917 eV)
   309     309      1.000      -0.240 au  H             1.00      1 S              14
                        (      -6.532 eV)
   310     310       --         0.088 au  H             1.00      2 S              14
                        (       2.394 eV)
   311     311       --         1.502 au  H             1.00      3 S              14
                        (      40.869 eV)
   312     312       --         0.406 au  H             1.00      1 P:x            14
                        (      11.051 eV)
   313     313       --         0.406 au  H             1.00      1 P:y            14
                        (      11.051 eV)
   314     314       --         0.406 au  H             1.00      1 P:z            14
                        (      11.051 eV)
   315     315       --         2.569 au  H             1.00      1 D:z2           14
                        (      69.917 eV)
   316     316       --         2.569 au  H             1.00      1 D:x2-y2        14
                        (      69.917 eV)
   317     317       --         2.569 au  H             1.00      1 D:xy           14
                        (      69.917 eV)
   318     318       --         2.569 au  H             1.00      1 D:xz           14
                        (      69.917 eV)
   319     319       --         2.569 au  H             1.00      1 D:yz           14
                        (      69.917 eV)
   320     320      1.000      -0.240 au  H             1.00      1 S              15
                        (      -6.532 eV)
   321     321       --         0.088 au  H             1.00      2 S              15
                        (       2.394 eV)
   322     322       --         1.502 au  H             1.00      3 S              15
                        (      40.869 eV)
   323     323       --         0.406 au  H             1.00      1 P:x            15
                        (      11.051 eV)
   324     324       --         0.406 au  H             1.00      1 P:y            15
                        (      11.051 eV)
   325     325       --         0.406 au  H             1.00      1 P:z            15
                        (      11.051 eV)
   326     326       --         2.569 au  H             1.00      1 D:z2           15
                        (      69.917 eV)
   327     327       --         2.569 au  H             1.00      1 D:x2-y2        15
                        (      69.917 eV)
   328     328       --         2.569 au  H             1.00      1 D:xy           15
                        (      69.917 eV)
   329     329       --         2.569 au  H             1.00      1 D:xz           15
                        (      69.917 eV)
   330     330       --         2.569 au  H             1.00      1 D:yz           15
                        (      69.917 eV)
   331     331      1.000      -0.240 au  H             1.00      1 S              16
                        (      -6.532 eV)
   332     332       --         0.088 au  H             1.00      2 S              16
                        (       2.394 eV)
   333     333       --         1.502 au  H             1.00      3 S              16
                        (      40.869 eV)
   334     334       --         0.406 au  H             1.00      1 P:x            16
                        (      11.051 eV)
   335     335       --         0.406 au  H             1.00      1 P:y            16
                        (      11.051 eV)
   336     336       --         0.406 au  H             1.00      1 P:z            16
                        (      11.051 eV)
   337     337       --         2.569 au  H             1.00      1 D:z2           16
                        (      69.917 eV)
   338     338       --         2.569 au  H             1.00      1 D:x2-y2        16
                        (      69.917 eV)
   339     339       --         2.569 au  H             1.00      1 D:xy           16
                        (      69.917 eV)
   340     340       --         2.569 au  H             1.00      1 D:xz           16
                        (      69.917 eV)
   341     341       --         2.569 au  H             1.00      1 D:yz           16
                        (      69.917 eV)
   342     342      1.000      -0.240 au  H             1.00      1 S              17
                        (      -6.532 eV)
   343     343       --         0.088 au  H             1.00      2 S              17
                        (       2.394 eV)
   344     344       --         1.502 au  H             1.00      3 S              17
                        (      40.869 eV)
   345     345       --         0.406 au  H             1.00      1 P:x            17
                        (      11.051 eV)
   346     346       --         0.406 au  H             1.00      1 P:y            17
                        (      11.051 eV)
   347     347       --         0.406 au  H             1.00      1 P:z            17
                        (      11.051 eV)
   348     348       --         2.569 au  H             1.00      1 D:z2           17
                        (      69.917 eV)
   349     349       --         2.569 au  H             1.00      1 D:x2-y2        17
                        (      69.917 eV)
   350     350       --         2.569 au  H             1.00      1 D:xy           17
                        (      69.917 eV)
   351     351       --         2.569 au  H             1.00      1 D:xz           17
                        (      69.917 eV)
   352     352       --         2.569 au  H             1.00      1 D:yz           17
                        (      69.917 eV)
   353     353      1.000      -0.240 au  H             1.00      1 S              18
                        (      -6.532 eV)
   354     354       --         0.088 au  H             1.00      2 S              18
                        (       2.394 eV)
   355     355       --         1.502 au  H             1.00      3 S              18
                        (      40.869 eV)
   356     356       --         0.406 au  H             1.00      1 P:x            18
                        (      11.051 eV)
   357     357       --         0.406 au  H             1.00      1 P:y            18
                        (      11.051 eV)
   358     358       --         0.406 au  H             1.00      1 P:z            18
                        (      11.051 eV)
   359     359       --         2.569 au  H             1.00      1 D:z2           18
                        (      69.917 eV)
   360     360       --         2.569 au  H             1.00      1 D:x2-y2        18
                        (      69.917 eV)
   361     361       --         2.569 au  H             1.00      1 D:xy           18
                        (      69.917 eV)
   362     362       --         2.569 au  H             1.00      1 D:xz           18
                        (      69.917 eV)
   363     363       --         2.569 au  H             1.00      1 D:yz           18
                        (      69.917 eV)
   364     364      1.000      -0.240 au  H             1.00      1 S              19
                        (      -6.532 eV)
   365     365       --         0.088 au  H             1.00      2 S              19
                        (       2.394 eV)
   366     366       --         1.502 au  H             1.00      3 S              19
                        (      40.869 eV)
   367     367       --         0.406 au  H             1.00      1 P:x            19
                        (      11.051 eV)
   368     368       --         0.406 au  H             1.00      1 P:y            19
                        (      11.051 eV)
   369     369       --         0.406 au  H             1.00      1 P:z            19
                        (      11.051 eV)
   370     370       --         2.569 au  H             1.00      1 D:z2           19
                        (      69.917 eV)
   371     371       --         2.569 au  H             1.00      1 D:x2-y2        19
                        (      69.917 eV)
   372     372       --         2.569 au  H             1.00      1 D:xy           19
                        (      69.917 eV)
   373     373       --         2.569 au  H             1.00      1 D:xz           19
                        (      69.917 eV)
   374     374       --         2.569 au  H             1.00      1 D:yz           19
                        (      69.917 eV)
   375     375      1.000      -0.240 au  H             1.00      1 S              20
                        (      -6.532 eV)
   376     376       --         0.088 au  H             1.00      2 S              20
                        (       2.394 eV)
   377     377       --         1.502 au  H             1.00      3 S              20
                        (      40.869 eV)
   378     378       --         0.406 au  H             1.00      1 P:x            20
                        (      11.051 eV)
   379     379       --         0.406 au  H             1.00      1 P:y            20
                        (      11.051 eV)
   380     380       --         0.406 au  H             1.00      1 P:z            20
                        (      11.051 eV)
   381     381       --         2.569 au  H             1.00      1 D:z2           20
                        (      69.917 eV)
   382     382       --         2.569 au  H             1.00      1 D:x2-y2        20
                        (      69.917 eV)
   383     383       --         2.569 au  H             1.00      1 D:xy           20
                        (      69.917 eV)
   384     384       --         2.569 au  H             1.00      1 D:xz           20
                        (      69.917 eV)
   385     385       --         2.569 au  H             1.00      1 D:yz           20
                        (      69.917 eV)



 ================================
 (Slater-type)  F U N C T I O N S  ***  (Basis and Fit)  ***
 ================================
  

 Atom Type    1  (C)
 ==============

 Valence Basis Sets:  10
 -----------------------
   1 S    7.680000
   1 S    5.000000
   2 S    1.280000
   2 S    2.100000
   2 S    4.600000
   2 P    0.820000
   2 P    1.480000
   2 P    2.940000
   3 D    2.200000
   4 F    3.300000

 Atom Type    2  (N)
 ==============

 Valence Basis Sets:  10
 -----------------------
   1 S    8.740000
   1 S    5.900000
   2 S    5.150000
   2 S    2.500000
   2 S    1.500000
   2 P    3.680000
   2 P    1.880000
   2 P    1.000000
   3 D    2.200000
   4 F    3.300000

 Atom Type    3  (O)
 ==============

 Valence Basis Sets:  10
 -----------------------
   1 S    9.800000
   1 S    6.800000
   2 S    7.580000
   2 S    2.880000
   2 S    1.720000
   2 P    4.080000
   2 P    2.080000
   2 P    1.120000
   3 D    2.000000
   4 F    3.000000

 Atom Type    4  (H)
 ==============

 Valence Basis Sets:   5
 -----------------------
   1 S    0.690000
   1 S    0.920000
   1 S    1.580000
   2 P    1.250000
   3 D    2.500000


 BAS: List of all Elementary Cartesian Basis Functions
 =====================================================

 The numbering in the list below (to the right of the function characteristics) is referred
 to in print-outs of MO eigenvectors and Mulliken populations in the BAS representation
 (as contrasted to the SFO representation).

 Notes:
 1. The functions are characterized by a polynomial prefactor (powers of x,y,z and r) and
    an exponential decay factor alpha.
 2. Since the basis sets are specific for an atom TYPE, the individual functions occur on
    all atoms of that type.
 3. The word 'Core' in the left margin signals that it is a Core Function (CF) : not a
    degree of freedom in the valence set, but only used to ensure orthogonalization of
    the other valence basis functions on the frozen Core Orbitals.


 (power of) X  Y  Z  R     Alpha  on Atom
            ==========     =====     ==========

 C                                    1    2    3    4    5
                                  ---------------------------------------------------------------------------
            0  0  0  0     7.680      1   31   61   91  121
            0  0  0  0     5.000      2   32   62   92  122
            0  0  0  1     1.280      3   33   63   93  123
            0  0  0  1     2.100      4   34   64   94  124
            0  0  0  1     4.600      5   35   65   95  125
            1  0  0  0     0.820      6   36   66   96  126
            0  1  0  0     0.820      7   37   67   97  127
            0  0  1  0     0.820      8   38   68   98  128
            1  0  0  0     1.480      9   39   69   99  129
            0  1  0  0     1.480     10   40   70  100  130
            0  0  1  0     1.480     11   41   71  101  131
            1  0  0  0     2.940     12   42   72  102  132
            0  1  0  0     2.940     13   43   73  103  133
            0  0  1  0     2.940     14   44   74  104  134
            2  0  0  0     2.200     15   45   75  105  135
            1  1  0  0     2.200     16   46   76  106  136
            1  0  1  0     2.200     17   47   77  107  137
            0  2  0  0     2.200     18   48   78  108  138
            0  1  1  0     2.200     19   49   79  109  139
            0  0  2  0     2.200     20   50   80  110  140
            3  0  0  0     3.300     21   51   81  111  141
            2  1  0  0     3.300     22   52   82  112  142
            2  0  1  0     3.300     23   53   83  113  143
            1  2  0  0     3.300     24   54   84  114  144
            1  1  1  0     3.300     25   55   85  115  145
            1  0  2  0     3.300     26   56   86  116  146
            0  3  0  0     3.300     27   57   87  117  147
            0  2  1  0     3.300     28   58   88  118  148
            0  1  2  0     3.300     29   59   89  119  149
            0  0  3  0     3.300     30   60   90  120  150

 N                                    6    7    8
                                  ---------------------------------------------------------------------------
            0  0  0  0     8.740    151  181  211
            0  0  0  0     5.900    152  182  212
            0  0  0  1     5.150    153  183  213
            0  0  0  1     2.500    154  184  214
            0  0  0  1     1.500    155  185  215
            1  0  0  0     3.680    156  186  216
            0  1  0  0     3.680    157  187  217
            0  0  1  0     3.680    158  188  218
            1  0  0  0     1.880    159  189  219
            0  1  0  0     1.880    160  190  220
            0  0  1  0     1.880    161  191  221
            1  0  0  0     1.000    162  192  222
            0  1  0  0     1.000    163  193  223
            0  0  1  0     1.000    164  194  224
            2  0  0  0     2.200    165  195  225
            1  1  0  0     2.200    166  196  226
            1  0  1  0     2.200    167  197  227
            0  2  0  0     2.200    168  198  228
            0  1  1  0     2.200    169  199  229
            0  0  2  0     2.200    170  200  230
            3  0  0  0     3.300    171  201  231
            2  1  0  0     3.300    172  202  232
            2  0  1  0     3.300    173  203  233
            1  2  0  0     3.300    174  204  234
            1  1  1  0     3.300    175  205  235
            1  0  2  0     3.300    176  206  236
            0  3  0  0     3.300    177  207  237
            0  2  1  0     3.300    178  208  238
            0  1  2  0     3.300    179  209  239
            0  0  3  0     3.300    180  210  240

 O                                    9   10   11
                                  ---------------------------------------------------------------------------
            0  0  0  0     9.800    241  271  301
            0  0  0  0     6.800    242  272  302
            0  0  0  1     7.580    243  273  303
            0  0  0  1     2.880    244  274  304
            0  0  0  1     1.720    245  275  305
            1  0  0  0     4.080    246  276  306
            0  1  0  0     4.080    247  277  307
            0  0  1  0     4.080    248  278  308
            1  0  0  0     2.080    249  279  309
            0  1  0  0     2.080    250  280  310
            0  0  1  0     2.080    251  281  311
            1  0  0  0     1.120    252  282  312
            0  1  0  0     1.120    253  283  313
            0  0  1  0     1.120    254  284  314
            2  0  0  0     2.000    255  285  315
            1  1  0  0     2.000    256  286  316
            1  0  1  0     2.000    257  287  317
            0  2  0  0     2.000    258  288  318
            0  1  1  0     2.000    259  289  319
            0  0  2  0     2.000    260  290  320
            3  0  0  0     3.000    261  291  321
            2  1  0  0     3.000    262  292  322
            2  0  1  0     3.000    263  293  323
            1  2  0  0     3.000    264  294  324
            1  1  1  0     3.000    265  295  325
            1  0  2  0     3.000    266  296  326
            0  3  0  0     3.000    267  297  327
            0  2  1  0     3.000    268  298  328
            0  1  2  0     3.000    269  299  329
            0  0  3  0     3.000    270  300  330

 H                                   12   13   14   15   16   17   18   19   20
                                  ---------------------------------------------------------------------------
            0  0  0  0     0.690    331  343  355  367  379  391  403  415  427
            0  0  0  0     0.920    332  344  356  368  380  392  404  416  428
            0  0  0  0     1.580    333  345  357  369  381  393  405  417  429
            1  0  0  0     1.250    334  346  358  370  382  394  406  418  430
            0  1  0  0     1.250    335  347  359  371  383  395  407  419  431
            0  0  1  0     1.250    336  348  360  372  384  396  408  420  432
            2  0  0  0     2.500    337  349  361  373  385  397  409  421  433
            1  1  0  0     2.500    338  350  362  374  386  398  410  422  434
            1  0  1  0     2.500    339  351  363  375  387  399  411  423  435
            0  2  0  0     2.500    340  352  364  376  388  400  412  424  436
            0  1  1  0     2.500    341  353  365  377  389  401  413  425  437
            0  0  2  0     2.500    342  354  366  378  390  402  414  426  438

 Total number of charge fitting functions (nprimf)      1374
 Total number of Cartesian basis functions (naos)        438
 Total number of Cartesian core functions  (ncos)          0

 ***************************************************************************************************



                                              ***********************
                                              *  T E C H N I C A L  *
                                              ***********************
  



 =============================================================
 P A R A L L E L I Z A T I O N  and  V E C T O R I Z A T I O N
 =============================================================
  
 Nr of parallel processes:                                1
 Maximum vector length in NumInt loops:                 128



 =====================
 S C F   U P D A T E S
 =====================
  
 Max. nr. of cycles:                               200
 Convergence criterion:                              0.0000010000
   secondary criterion:                              0.0010000000

 Mix parameter (when DIIS does not apply):           0.2000000000
 Mixed ADIIS+SDIIS will be used                  
    Max number of expansion vectors:                10
    Pure ADIIS when Max([F,P]) is above              0.1000000000
    Pure SDIIS when Max([F,P]) is below              0.0010000000
 Automatic ElectronSmearing (in case of problematic SCF convergence) disabled



 =================
 P R E C I S I O N  ***  (General: NumInt, NeglectFunctionTails, ...)  ***
 =================
  

 NumInt:           Target precision:                 4.0000000000
 -------           Initial precision:                4.0000000000
                   Min. precision (optimization):    4.0000000000

 Neglect Functions:          Basis functions:        0.1000000000E-05
 ------------------          Fit functions:          0.1000000000E-05



 ===========================
 L I N E A R   S C A L I N G
 ===========================
  

 Cut-off radii density fit:                        0.1000000000E-07
 Overlap cut-off criterion AO matrix elements:     0.1000000000E-05
 Cut-offs for Coulomb potential and fitted density:0.1000000000E-07
 Cut-off criterion for Coulomb multipole terms:    0.1000000000E-07
 Progressive Convergence parameter:                 0.000000000    
 ***************************************************************************************************



                                            ***************************
                                            *  C O M P U T A T I O N  *
                                            ***************************
  

 Number of elements of the density matrix on this node (used, total):     96141     96141



 ===========================================
 Numerical Integration : Fuzzy Cells (Becke)
 ===========================================
  
 Becke grid quality: NORMAL         
  
 Lebedev angular grid order:             min:  11 max:  23
 Nr. of radial points:                   min:  46 max:  52

 Total nr. of points:     129524
 Nr. of blocks:             1012
 Block length:               128
 Nr. of dummy points:         12


 Test of Precision of the Numerical Integration Grid
 ===================================================

 Integral of the Total Core Density:                   0.00000000000000



 ========================
 Density Fitting (zlmFit)
 ========================
  
 ZlmFit Fit Quality: NORMAL         
  
 Max L-expansion:                        min:   6 max:   7
 Nr. of radial interpolation points:     min:  39 max:  54



 =====
 S C F  ***  ScaSCF  ***
 =====
  
 Initial density matrix is calculated as sum of fragments

 CYCLE    1
 SCF Error: norm([F,P])=      8.217343280979, max([F,P])=      1.442945202199
 orbitals (Q,E):
 ---------------
 A :33...52          ( 2.00    -0.5137)  ( 2.00    -0.5064)  ( 2.00    -0.4961)  ( 2.00    -0.4793)
                     ( 2.00    -0.4287)  ( 2.00    -0.4007)  ( 2.00    -0.3908)  ( 2.00    -0.3904)
                     ( 2.00    -0.3773)  ( 2.00    -0.3263)  ( 0.00    -0.2426)  ( 0.00    -0.1127)
                     ( 0.00    -0.1008)  ( 0.00    -0.0691)  ( 0.00    -0.0556)  ( 0.00    -0.0485)
                     ( 0.00    -0.0406)  ( 0.00    -0.0300)  ( 0.00    -0.0197)  ( 0.00    -0.0063)

 CYCLE    2
   MIX coefficients:  0.8000  0.2000
 SCF Error: norm([F,P])=      1.511933746333, max([F,P])=      0.223981664456
 orbitals (Q,E):
 ---------------
 A :33...43          ( 2.00    -0.4603)  ( 2.00    -0.4522)  ( 2.00    -0.4416)  ( 2.00    -0.4251)
                     ( 2.00    -0.3716)  ( 2.00    -0.3299)  ( 2.00    -0.3264)  ( 2.00    -0.3160)
                     ( 2.00    -0.3120)  ( 2.00    -0.2913)  ( 0.00    -0.2195)

 CYCLE    3
  SDIIS (wt  0.000): -0.6151  1.6151
 A-DIIS (wt  1.000):  0.0000  1.0000
  DIIS coefficients:  0.0000  1.0000
 SCF Error: norm([F,P])=      0.692301833545, max([F,P])=      0.101075048419
 orbitals (Q,E):
 ---------------
 A :33...43          ( 2.00    -0.2978)  ( 2.00    -0.2933)  ( 2.00    -0.2832)  ( 2.00    -0.2743)
                     ( 2.00    -0.2360)  ( 2.00    -0.1775)  ( 2.00    -0.1571)  ( 2.00    -0.1471)
                     ( 2.00    -0.1415)  ( 2.00    -0.1241)  ( 0.00    -0.1082)

 CYCLE    4
  SDIIS (wt  0.000):  0.1698  0.4145  0.4157
 A-DIIS (wt  1.000):  0.0000  0.7172  0.2828
  DIIS coefficients:  0.0000  0.7172  0.2828
 SCF Error: norm([F,P])=      1.267405485036, max([F,P])=      0.197016566259
 orbitals (Q,E):
 ---------------
 A :33...43          ( 2.00    -0.3447)  ( 2.00    -0.3407)  ( 2.00    -0.3370)  ( 2.00    -0.3244)
[...]
                                    4.83%     2 S               2.394  0.00    20 H
                                    4.71%     1 S              -6.532  1.00    17 H
                                    4.28%     2 S               2.394  0.00    12 H
                                    3.67%     1 P:z            -5.239  0.67     1 C
                                    3.64%     1 S              -6.532  1.00    20 H
                                    3.11%     2 S               2.394  0.00    15 H
                                   -2.79%     2 P:y             4.589  0.00     5 C
                                   -2.66%     2 P:x             7.649  0.00     6 N
                                    2.57%     2 S               2.394  0.00    19 H
                                   -2.34%     2 P:z             4.589  0.00     1 C
                                    1.56%     1 P:z            -5.239  0.67     5 C
                                    1.44%     2 P:x             4.589  0.00     3 C
                                    1.40%     1 P:y            -5.239  0.67     1 C
                                    1.38%     1 S              -6.532  1.00    16 H
                                    1.36%     3 S              40.869  0.00    12 H
                                   -1.14%     2 S               2.394  0.00    17 H
                                    1.08%     3 S              40.869  0.00    19 H
       1.228  0.00    51 A         17.13%     1 S              -6.532  1.00    20 H
                                   16.54%     2 S               2.394  0.00    20 H
                                   13.63%     1 S              -6.532  1.00    19 H
                                  -12.70%     2 P:y             4.589  0.00     5 C
                                    9.43%     1 P:z            -7.062  1.00     7 N
                                   -7.78%     2 P:z             4.589  0.00     5 C
                                    5.43%     1 P:y            -5.239  0.67     5 C
                                    5.03%     1 P:x            -5.239  0.67     3 C
                                    4.43%     1 S              -6.532  1.00    18 H
                                    4.22%     1 P:z            -9.020  1.33    10 O
                                    4.14%     1 S              -6.532  1.00    12 H
                                    3.94%     1 S              -6.532  1.00    13 H
                                   -3.72%     2 P:y             4.589  0.00     1 C
                                    3.44%     2 S             -23.838  2.00    10 O
                                    3.27%     2 S               2.394  0.00    12 H
                                    3.21%     1 P:z            -5.239  0.67     5 C
                                    3.19%     2 S               2.394  0.00    13 H
                                    3.13%     1 P:x            -7.062  1.00     7 N
                                    2.93%     1 P:x            -5.239  0.67     5 C
                                    2.78%     2 S             -18.450  2.00     7 N
                                   -2.74%     3 S              21.524  0.00    10 O
                                    2.56%     2 S               2.394  0.00    18 H
                                    1.80%     2 P:x             4.589  0.00     5 C
                                    1.79%     1 P:y            -5.239  0.67     1 C
                                    1.72%     3 S              40.869  0.00    19 H
                                   -1.59%     2 P:x             4.589  0.00     1 C
                                   -1.52%     3 S              14.073  0.00     8 N
                                    1.25%     2 S             -18.450  2.00     8 N
                                    1.13%     1 P:x            -5.239  0.67     2 C
                                    1.13%     2 P:x             7.649  0.00     8 N
                                    1.11%     2 P:x             4.589  0.00     2 C
       1.351  0.00    52 A         17.46%     1 S              -6.532  1.00    13 H
                                   12.44%     2 S               2.394  0.00    13 H
                                   11.47%     1 S              -6.532  1.00    12 H
                                    9.95%     1 P:x            -5.239  0.67     1 C
                                    8.94%     1 P:z            -7.062  1.00     7 N
                                   -7.35%     2 P:x             4.589  0.00     1 C
                                    7.34%     1 S              -6.532  1.00    16 H
                                    6.95%     2 S               2.394  0.00    15 H
                                   -6.37%     2 P:z             4.589  0.00     2 C
                                    4.71%     1 S              -6.532  1.00    15 H
                                    3.60%     2 S               2.394  0.00    19 H
                                    3.11%     1 P:x            -5.239  0.67     3 C
                                    2.84%     2 S             -23.838  2.00    10 O
                                    2.81%     2 P:y             4.589  0.00     2 C
                                    2.75%     1 P:x            -7.062  1.00     7 N
                                    2.56%     2 S               2.394  0.00    12 H
                                   -2.29%     3 S              21.524  0.00    10 O
                                    2.24%     1 P:z            -5.239  0.67     1 C
                                    2.12%     1 S              -6.532  1.00    19 H
                                    1.94%     1 P:z            -9.020  1.33    10 O
                                   -1.93%     3 S              14.073  0.00     6 N
                                   -1.86%     1 P:z            -5.239  0.67     2 C
                                    1.64%     2 P:x             4.589  0.00     3 C
                                   -1.54%     2 P:z             7.649  0.00     7 N
                                    1.48%     1 P:y            -7.062  1.00     6 N
                                    1.38%     1 P:x            11.051  0.00    16 H
                                   -1.27%     2 P:y             4.589  0.00     5 C
                                    1.26%     2 P:y             7.649  0.00     6 N
                                    1.23%     3 S              40.869  0.00    12 H
                                    1.22%     1 P:y            -5.239  0.67     3 C
                                   -1.11%     2 P:z             7.649  0.00     6 N
                                    1.10%     2 S             -18.450  2.00     6 N
                                    1.09%     1 S              -6.532  1.00    17 H



 =======================================================================
 Electrostatic potential at the Nuclei due to electrons and other nuclei
 =======================================================================
  
         Atom                  Potential
         ----                  ---------
     1)   C                  14.73762770
     2)   N                  18.37025663
     3)   C                  14.67362056
     4)   O                  22.42288453
     5)   C                  14.68375832
     6)   O                  22.24339510
     7)   N                  18.37430729
     8)   C                  14.67840671
     9)   O                  22.44109195
    10)   N                  18.37630623
    11)   C                  14.74451193
    12)   H                   1.08638419
    13)   H                   1.09408912
    14)   H                   1.09480363
    15)   H                   1.00167418
    16)   H                   1.05205560
    17)   H                   1.00449147
    18)   H                   1.10365665
    19)   H                   1.09269873
    20)   H                   1.10418565
 Mulliken charges used for AMS results%charges...


    =====================
     CALCULATION RESULTS
    =====================

Energy (hartree)            -4.24522162


--------------
Atomic charges
--------------
  Index   Atom    Charge
      1      C    0.7793
      2      N   -0.1119
      3      C    0.5514
      4      O   -0.5732
      5      C    0.4410
      6      O   -0.2360
      7      N   -0.2041
      8      C    0.6308
      9      O   -0.6048
     10      N   -0.1312
     11      C    0.7787
     12      H   -0.2336
     13      H   -0.1725
     14      H   -0.1715
     15      H    0.0038
     16      H   -0.1358
     17      H   -0.0482
     18      H   -0.1619
     19      H   -0.2268
     20      H   -0.1734


Dipole moment vector    (Debye):     2.00594205   -1.80353400    4.16455848
              magnitude (Debye):     4.96186313


-----------------------
Molecular orbitals info
-----------------------
n orbitals:              385
n spin:                    1

Note: only printing virtual orbitals with
      energy smaller than HOMO + 100. eV

HOMO (eV):              -5.8730
LUMO (eV):              -4.0636
HOMO-LUMO gap (eV):      1.8094

   Index   Energy (eV)    Occupation
     242       93.9476         0.000       
     241       93.8868         0.000       
     240       93.7263         0.000       
     239       93.5372         0.000       
     238       93.2494         0.000       
     237       93.0004         0.000       
     236       92.1542         0.000       
     235       91.6014         0.000       
     234       91.1427         0.000       
     233       90.5343         0.000       
     232       90.2888         0.000       
     231       89.5538         0.000       
     230       88.7786         0.000       
     229       87.7877         0.000       
     228       86.4592         0.000       
     227       85.9124         0.000       
     226       85.6815         0.000       
     225       83.9251         0.000       
     224       83.6289         0.000       
     223       82.5982         0.000       
     222       82.1193         0.000       
     221       81.5497         0.000       
     220       80.5750         0.000       
     219       79.8848         0.000       
     218       78.8135         0.000       
     217       78.4022         0.000       
     216       78.0236         0.000       
     215       77.7447         0.000       
     214       77.5575         0.000       
     213       77.1479         0.000       
     212       76.7802         0.000       
     211       76.3623         0.000       
     210       76.0692         0.000       
     209       75.9246         0.000       
     208       75.5477         0.000       
     207       75.3565         0.000       
     206       74.8192         0.000       
     205       73.9694         0.000       
     204       73.4158         0.000       
     203       72.9142         0.000       
     202       71.4777         0.000       
     201       70.5860         0.000       
     200       70.3460         0.000       
     199       69.2990         0.000       
     198       68.2963         0.000       
     197       67.7512         0.000       
     196       66.1157         0.000       
     195       65.5893         0.000       
     194       64.7738         0.000       
     193       63.7143         0.000       
     192       63.3916         0.000       
     191       62.1655         0.000       
     190       61.7640         0.000       
     189       61.4029         0.000       
     188       61.2753         0.000       
     187       61.1590         0.000       
     186       60.1442         0.000       
     185       59.9656         0.000       
     184       58.7733         0.000       
     183       57.4932         0.000       
     182       56.9489         0.000       
     181       56.7813         0.000       
     180       55.4348         0.000       
     179       54.7848         0.000       
     178       54.6094         0.000       
     177       54.3327         0.000       
     176       54.0037         0.000       
     175       53.6102         0.000       
     174       53.1004         0.000       
     173       52.0602         0.000       
     172       51.8689         0.000       
     171       50.6953         0.000       
     170       50.1484         0.000       
     169       50.0841         0.000       
     168       49.6034         0.000       
     167       48.6445         0.000       
     166       48.2956         0.000       
     165       46.7464         0.000       
     164       46.6481         0.000       
     163       46.1689         0.000       
     162       45.3037         0.000       
     161       45.1005         0.000       
     160       44.2780         0.000       
     159       43.7138         0.000       
     158       43.0990         0.000       
     157       42.9331         0.000       
     156       42.3527         0.000       
     155       42.2145         0.000       
     154       41.6839         0.000       
     153       40.9890         0.000       
     152       40.3810         0.000       
     151       39.9781         0.000       
     150       39.4008         0.000       
     149       39.1511         0.000       
     148       38.7096         0.000       
     147       37.8430         0.000       
     146       37.6825         0.000       
     145       37.1591         0.000       
     144       36.8086         0.000       
     143       36.3661         0.000       
     142       35.5279         0.000       
     141       35.2216         0.000       
     140       35.0637         0.000       
     139       34.5248         0.000       
     138       34.2230         0.000       
     137       33.7732         0.000       
     136       33.2855         0.000       
     135       32.3516         0.000       
     134       31.8745         0.000       
     133       31.5926         0.000       
     132       30.9323         0.000       
     131       30.2657         0.000       
     130       29.8250         0.000       
     129       29.5050         0.000       
     128       28.7430         0.000       
     127       28.3441         0.000       
     126       27.8241         0.000       
     125       27.6589         0.000       
     124       27.2556         0.000       
     123       27.0367         0.000       
     122       26.4388         0.000       
     121       26.3603         0.000       
     120       25.9301         0.000       
     119       25.4575         0.000       
     118       25.2796         0.000       
     117       25.0849         0.000       
     116       24.6306         0.000       
     115       24.3231         0.000       
     114       23.7872         0.000       
     113       23.2048         0.000       
     112       22.7323         0.000       
     111       22.4149         0.000       
     110       21.9745         0.000       
     109       21.4102         0.000       
     108       20.8086         0.000       
     107       19.9056         0.000       
     106       19.2768         0.000       
     105       18.9046         0.000       
     104       18.5533         0.000       
     103       18.1386         0.000       
     102       17.8114         0.000       
     101       17.1054         0.000       
     100       16.4905         0.000       
      99       15.6832         0.000       
      98       15.6102         0.000       
      97       15.0627         0.000       
      96       14.4331         0.000       
      95       14.0496         0.000       
      94       13.6438         0.000       
      93       13.2631         0.000       
      92       12.6884         0.000       
      91       12.5929         0.000       
      90       12.2421         0.000       
      89       11.8910         0.000       
      88       11.3674         0.000       
      87       11.2338         0.000       
      86       10.9110         0.000       
      85       10.6119         0.000       
      84       10.4552         0.000       
      83       10.1384         0.000       
      82        9.5778         0.000       
      81        9.4330         0.000       
      80        9.0557         0.000       
      79        9.0384         0.000       
      78        8.4278         0.000       
      77        8.3378         0.000       
      76        8.0482         0.000       
      75        7.9975         0.000       
      74        7.4271         0.000       
      73        7.1379         0.000       
      72        7.0287         0.000       
      71        6.8751         0.000       
      70        6.6809         0.000       
      69        6.4411         0.000       
      68        5.7716         0.000       
      67        5.7491         0.000       
      66        5.3560         0.000       
      65        4.9731         0.000       
      64        4.6995         0.000       
      63        4.5589         0.000       
      62        4.2553         0.000       
      61        4.1061         0.000       
      60        3.9500         0.000       
      59        3.5863         0.000       
      58        3.2176         0.000       
      57        2.9239         0.000       
      56        2.7341         0.000       
      55        1.7498         0.000       
      54        1.5674         0.000       
      53        1.4595         0.000       
      52        1.3508         0.000       
      51        1.2278         0.000       
      50        0.9675         0.000       
      49        0.4707         0.000       
      48        0.3283         0.000       
      47        0.2622         0.000       
      46        0.0065         0.000       
      45       -0.1937         0.000       
      44       -0.8256         0.000       
      43       -4.0636         0.000 < LUMO
      42       -5.8730         2.000 < HOMO
      41       -5.9782         2.000       
      40       -6.2783         2.000       
      39       -6.3164         2.000       
      38       -6.5758         2.000       
      37       -7.7915         2.000       
      36       -9.3266         2.000       
      35       -9.6980         2.000       
      34       -9.7409         2.000       
      33       -9.9431         2.000       
      32      -10.1240         2.000       
      31      -10.5056         2.000       
      30      -11.1110         2.000       
      29      -11.2093         2.000       
      28      -11.4356         2.000       
      27      -11.6446         2.000       
      26      -12.1355         2.000       
      25      -12.8860         2.000       
      24      -13.4818         2.000       
      23      -14.3812         2.000       
      22      -14.7647         2.000       
      21      -15.3291         2.000       
      20      -16.5338         2.000       
      19      -18.0267         2.000       
      18      -18.5953         2.000       
      17      -21.9354         2.000       
      16      -23.2380         2.000       
      15      -23.4343         2.000       
      14      -25.8432         2.000       
      13      -26.1172         2.000       
      12      -30.2103         2.000       
      11     -271.0806         2.000       
      10     -271.2683         2.000       
       9     -272.9469         2.000       
       8     -272.9953         2.000       
       7     -273.1274         2.000       
       6     -382.5336         2.000       
       5     -382.7421         2.000       
       4     -383.0524         2.000       
       3     -510.3582         2.000       
       2     -510.8742         2.000       
       1     -515.7486         2.000       

AMS application finished. Exiting.
NORMAL TERMINATION
     Total cpu time:      66.68
  Total system time:       0.35
 Total elapsed time:      67.43
NORMAL TERMINATION
