
 *******************************************************************************
 *                                                                             *
 *  --------------------------------                                           *
 *   Amsterdam Modeling Suite (AMS)              2026.103                      *
 *  --------------------------------                                           *
 *                                               r260501 2026-05-01 873454b5   *
 *                                                                             *
 *                                                                             *
 *                              =================                              *
 *                              |               |                              *
 *                              |     A M S     |                              *
 *                              |               |                              *
 *                              =================                              *
 *                                                                             *
 *                                                                             *
 *   Online information and documentation:  https://www.scm.com/support/       *
 *   E-mail:  support@scm.com   info@scm.com                                   *
 *                                                                             *
 *   Scientific publications using AMS results must be properly referenced     *
 *   See the User Manuals (or the web site) for recommended citations          *
 *   The terms and conditions of the End User License Agreement apply to       *
 *   the use of AMS, https://www.scm.com/license-terms/                        *
 *                                                                             *
 **********************  x86_64_linux_intel / intelmpi  ************************
 
 Licensed to: Jong-June Jeon / University of Seoul 2026-06-02 13:44:15
 SCM User ID: u30731
  
 AMS 2026.103  RunTime: Jun03-2026 00:52:26  ShM Nodes: 1  Procs: 1

 AMS jobname: c5_fragB_opt
 AMS jobid  : 35030220

 Start   directory: /gpfs/home1/yeseo1ee/projects/eda-asm-prediction/ADF_800/adf_outputs/batch_000/dipolar_000637/
 Results directory: /gpfs/home1/yeseo1ee/projects/eda-asm-prediction/ADF_800/adf_outputs/batch_000/dipolar_000637/c5_fragB_opt.results/
 Scratch directory: /tmp/amstmp_c5_fragB_opt_kid0.35030220/

 RNG seed: -1944284571 284897450 1158590759 1639940347 1282810830 1951026895 -1797431109 226867518



                      ************************************************************************
                      *  ADF 2026.103  RunTime: Jun03-2026 00:52:26  ShM Nodes: 1  Procs: 1  *
                      ************************************************************************
  

       ***************************
       *  GEOMETRY OPTIMIZATION  *
       ***************************

Optimization Method                    Quasi Newton
Optimization Coordinates               Delocalized Coordinates
Optimize lattice                       F
 
 ------------------------------------------------------
 Convergence criteria (Hartree,Angstrom)
 ------------------------------------------------------
 Maximum gradient               0.000100000000
 Maximum rms gradient           0.000066666667
 Maximum step allowed           0.010000000000
 Maximum rms step allowed       0.006666666667
 Maximum energy change allowe   0.000200000000
 Maximum stress energy allowe   0.000500000000
 
Initial model Hessian                  Automatic Hessian
 
------------------------------------
Quasi-Newton Optimizer Parameters
------------------------------------
Hessian Update Method                  BFGS
Maximum number of steps                  200
First GDIIS cycle                          0
Maximum GDIIS vectors                      0
Trust radius (bohr)                        0.200000
Trust radius varies                        T
Constraints converged at all steps         T
Use projector                              T
 
 Rigid motions settings for: old optimizer
 Atomic rotations (x,y,z):     T T T
 Atomic translations (x,y,z):  T T T
 Tolerance:                  1.000000000000000E-006

--------
Geometry
--------
Formula: C5H9N3O3
Atoms
  Index Symbol   x (angstrom)   y (angstrom)   z (angstrom)
      1      C    -1.70586000    -3.27463000     1.43242000
      2      N    -1.02912000    -2.46168000     0.44177000
      3      C    -1.71347000    -1.84163000    -0.52621000
      4      O    -2.93979000    -1.91482000    -0.68347000
      5      C    -0.95845000    -1.01538000    -1.51887000
      6      O     0.31549000    -0.88897000    -1.65621000
      7      N     1.10534000    -1.05961000    -0.57727000
      8      C     2.41686000    -0.69685000    -0.94913000
      9      O     2.73671000    -0.18027000    -2.02008000
     10      N     3.28259000    -0.97925000     0.04880000
     11      C     4.65460000    -0.51745000     0.01067000
     12      H    -0.95607000    -3.72497000     2.09337000
     13      H    -2.39805000    -2.66580000     2.03692000
     14      H    -2.28906000    -4.07529000     0.95262000
     15      H    -0.03270000    -2.24543000     0.51239000
     16      H    -1.50917000    -0.71968000    -2.41438000
     17      H     2.91431000    -1.37806000     0.90604000
     18      H     5.14562000    -0.83522000    -0.92107000
     19      H     5.19803000    -0.94755000     0.86071000
     20      H     4.71789000     0.58274000     0.07016000

Total System Charge              0.00000


----------------
ADF Engine Input
----------------
 
   Basis
     Type TZ2P
     Core None
   End
   XC
     GGA BLYP
     Dispersion GRIMME3 BJDAMP
   End
   Symmetry NOSYM
   NumericalQuality Normal
   Unrestricted No
   SCF
     Iterations 200
     Converge 1.0e-6
   End
   Save TAPE21
 

 Title: *** (NO TITLE) ***

 Using automatic Hessian for delocalized coordinates.
 *** GO1_GOStep1 ***

 Energy gradients wrt nuclear displacements
 ==========================================

     Atom      Cartesian (a.u./angstrom)
                 X         Y         Z
 ----------------------------------------
     1 C     0.007306  0.013393 -0.012861
     2 N    -0.027744  0.007396 -0.019499
     3 C     0.014286 -0.037527  0.018352
     4 O     0.014891  0.004838  0.003481
     5 C     0.030172  0.036208  0.028346
     6 O     0.006681 -0.042986  0.003019
     7 N    -0.022372  0.028651 -0.033867
     8 C     0.012715 -0.007788  0.040762
     9 O    -0.008447 -0.004495  0.004932
    10 N    -0.011106  0.012118 -0.031897
    11 C    -0.019964 -0.005219 -0.000692
    12 H     0.001835 -0.001592  0.002328
    13 H    -0.001781  0.002639  0.003597
    14 H    -0.001547 -0.004322 -0.002013
    15 H     0.001117 -0.002040  0.000530
    16 H    -0.002350  0.001235 -0.005036
    17 H    -0.000301 -0.002231  0.000800
    18 H     0.004017 -0.001827 -0.003475
    19 H     0.002248 -0.000931  0.002173
    20 H     0.000345  0.004482  0.001020
 ----------------------------------------
 
----------------------------------------------------------------------
Geometry Convergence after Step   1       (Hartree/Angstrom,Angstrom)
----------------------------------------------------------------------
current energy                               -4.24522162 Hartree
energy change                      -4.24522162     0.00020000    F
constrained gradient max            0.04300015     0.00010000    F
constrained gradient rms            0.01585582     0.00006667    F
gradient max                        0.04300015
gradient rms                        0.01585582
cart. step max                      0.14347459     0.01000000    F
cart. step rms                      0.05445550     0.00666667    F
 

--------
Geometry
--------
Formula: C5H9N3O3
Atoms
  Index Symbol   x (angstrom)   y (angstrom)   z (angstrom)
      1      C    -1.78937683    -3.29072221     1.45165114
      2      N    -1.10003626    -2.45141845     0.48218246
      3      C    -1.76614513    -1.86887698    -0.54285051
      4      O    -2.98346345    -1.99768047    -0.76904733
      5      C    -0.97823225    -1.04137208    -1.50771481
      6      O     0.30867994    -0.85698921    -1.58903884
      7      N     1.16015900    -1.07884293    -0.54245655
      8      C     2.45874849    -0.66898539    -0.95005898
      9      O     2.74901592    -0.09313156    -2.00297021
     10      N     3.36482458    -0.98222149     0.02653950
     11      C     4.73520926    -0.49755875    -0.02280257
     12      H    -1.05448902    -3.69495681     2.15518974
     13      H    -2.54152459    -2.71224581     2.00844969
     14      H    -2.30625798    -4.12189863     0.95335315
     15      H    -0.12063551    -2.18506560     0.59963641
     16      H    -1.49502374    -0.75070443    -2.42163706
     17      H     3.02291315    -1.42093445     0.87425611
     18      H     5.20326921    -0.76905390    -0.97774141
     19      H     5.30271401    -0.95511530     0.79458078
     20      H     4.78535120     0.59797443     0.07965929

Total System Charge              0.00000

 *** GO1_GOStep2 ***

 Energy gradients wrt nuclear displacements
 ==========================================

     Atom      Cartesian (a.u./angstrom)
                 X         Y         Z
 ----------------------------------------
     1 C     0.003770  0.005922 -0.007834
     2 N    -0.012275 -0.003607 -0.005387
     3 C     0.012155 -0.018628  0.009331
     4 O    -0.006301  0.002512 -0.001146
     5 C    -0.005227  0.028201  0.009774
     6 O     0.009104 -0.027527  0.002680
     7 N     0.005780  0.023460 -0.018830
     8 C     0.003246 -0.013820  0.028381
     9 O    -0.000605  0.004374 -0.007648
    10 N     0.000423  0.006555 -0.011881
    11 C    -0.010329 -0.003146  0.001117
    12 H     0.000523 -0.001093  0.001673
    13 H    -0.001052  0.001143  0.001796
    14 H    -0.001035 -0.002719  0.000125
    15 H    -0.001090  0.001363  0.000715
    16 H    -0.002076 -0.002817 -0.003185
    17 H     0.000559 -0.001694  0.000269
    18 H     0.002050 -0.000714 -0.001544
    19 H     0.001684 -0.000026  0.000915
    20 H     0.000697  0.002263  0.000680
 ----------------------------------------

 dE(predicted):    -0.61101E-02, dE(actual):    -0.48011E-02, Trust radius:    0.400000, all in a.u.
 Residual max backtransformation error   0.1857E-03
 
----------------------------------------------------------------------
Geometry Convergence after Step   2       (Hartree/Angstrom,Angstrom)
----------------------------------------------------------------------
current energy                               -4.25002275 Hartree
energy change                      -0.00480112     0.00020000    F
constrained gradient max            0.02836265     0.00010000    F
constrained gradient rms            0.00920903     0.00006667    F
gradient max                        0.02836265
gradient rms                        0.00920903
cart. step max                      0.21353778     0.01000000    F
cart. step rms                      0.09331482     0.00666667    F
 

--------
Geometry
--------
Formula: C5H9N3O3
Atoms
  Index Symbol   x (angstrom)   y (angstrom)   z (angstrom)
      1      C    -1.64483353    -3.20118263     1.48323554
      2      N    -1.03275719    -2.36005045     0.45920055
      3      C    -1.75219797    -1.89689902    -0.60115248
      4      O    -2.95050530    -2.14205576    -0.82278197
      5      C    -1.00936831    -1.07208660    -1.59494497
      6      O     0.25696820    -0.78114051    -1.62188333
      7      N     1.09690200    -1.15353955    -0.60056940
      8      C     2.38376517    -0.63741388    -0.93570735
      9      O     2.67545784     0.07722088    -1.89538007
     10      N     3.28850133    -1.07147840     0.00678150
     11      C     4.66024000    -0.57671471     0.03185930
     12      H    -0.87377727    -3.50371829     2.19719129
     13      H    -2.43969027    -2.65917197     2.01374244
     14      H    -2.09272021    -4.09469387     1.03185063
     15      H    -0.07549272    -2.01319214     0.54766714
     16      H    -1.53285868    -0.77532293    -2.50075214
     17      H     2.94145382    -1.61830689     0.78634521
     18      H     5.13216632    -0.71926753    -0.94705262
     19      H     5.22200243    -1.13592797     0.78623748
     20      H     4.70244434     0.49514222     0.27529327

Total System Charge              0.00000

 *** GO1_GOStep3 ***

 Energy gradients wrt nuclear displacements
 ==========================================

     Atom      Cartesian (a.u./angstrom)
                 X         Y         Z
 ----------------------------------------
     1 C     0.003633  0.000164 -0.001990
     2 N     0.007820  0.000731 -0.007169
     3 C     0.001397 -0.002599  0.006911
     4 O    -0.002437  0.000512 -0.001382
     5 C    -0.002247  0.012351  0.001217
     6 O     0.013033 -0.002032  0.003003
     7 N    -0.011698 -0.004383 -0.001340
     8 C    -0.004860 -0.004768  0.006419
     9 O     0.001417  0.003352 -0.005600
    10 N     0.000636  0.001056 -0.002879
    11 C    -0.004503 -0.001060  0.000720
    12 H    -0.000153 -0.000574  0.000588
    13 H     0.000031  0.000843  0.000193
    14 H     0.000066 -0.000871  0.000521
    15 H    -0.003469  0.002799  0.003591
    16 H    -0.000373 -0.005287 -0.002967
    17 H    -0.000211 -0.001109  0.000018
    18 H     0.000730 -0.000029 -0.000597
    19 H     0.000623  0.000086  0.000447
    20 H     0.000564  0.000819  0.000295
 ----------------------------------------

 dE(predicted):    -0.44968E-02, dE(actual):    -0.22631E-02, Trust radius:    0.400000, all in a.u.
 
----------------------------------------------------------------------
Geometry Convergence after Step   3       (Hartree/Angstrom,Angstrom)
----------------------------------------------------------------------
current energy                               -4.25228583 Hartree
energy change                      -0.00226308     0.00020000    F
constrained gradient max            0.01305045     0.00010000    F
constrained gradient rms            0.00394678     0.00006667    F
gradient max                        0.01305045
gradient rms                        0.00394678
cart. step max                      0.21332323     0.01000000    F
cart. step rms                      0.06579573     0.00666667    F
 

--------
Geometry
--------
Formula: C5H9N3O3
Atoms
  Index Symbol   x (angstrom)   y (angstrom)   z (angstrom)
      1      C    -1.76702247    -3.20642316     1.50430461
      2      N    -1.07283294    -2.45678427     0.45733028
      3      C    -1.74773120    -1.96794283    -0.62767670
      4      O    -2.95447379    -2.14720804    -0.85520860
      5      C    -0.96547089    -1.15164628    -1.59390666
      6      O     0.28230336    -0.79010354    -1.56716974
      7      N     1.15035011    -1.17114021    -0.56225822
      8      C     2.40933267    -0.58091794    -0.90267807
      9      O     2.66466698     0.15242515    -1.85314764
     10      N     3.35083690    -1.02273911     0.00873214
     11      C     4.72695154    -0.52975640    -0.01651333
     12      H    -1.02768739    -3.57119746     2.22126417
     13      H    -2.50010663    -2.57503705     2.02232582
     14      H    -2.30604344    -4.05523072     1.06964404
     15      H    -0.07917836    -2.22306884     0.52303032
     16      H    -1.49077979    -0.73987726    -2.45026541
     17      H     3.03284037    -1.57860753     0.79356726
     18      H     5.15497914    -0.66375794    -1.01510378
     19      H     5.31498147    -1.09923450     0.70829829
     20      H     4.77978437     0.53844795     0.23461125

Total System Charge              0.00000

 *** GO1_GOStep4 ***

 Energy gradients wrt nuclear displacements
 ==========================================

     Atom      Cartesian (a.u./angstrom)
                 X         Y         Z
 ----------------------------------------
     1 C    -0.001317  0.001189  0.002423
     2 N     0.002515 -0.002368  0.002699
     3 C    -0.005551  0.000847 -0.002932
     4 O     0.001107 -0.000153 -0.000270
     5 C    -0.003249 -0.001636 -0.003500
     6 O     0.007569  0.000742 -0.000736
     7 N     0.000566 -0.002070  0.003727
     8 C    -0.008747  0.011401 -0.003434
     9 O     0.001588 -0.002893 -0.000801
    10 N     0.002293 -0.004472  0.001354
    11 C     0.001703 -0.000164  0.000100
    12 H    -0.000297 -0.000218 -0.000314
    13 H     0.000004 -0.000974 -0.000008
    14 H     0.000591  0.000835  0.000339
    15 H     0.000405 -0.001146 -0.000425
    16 H     0.001086  0.001208  0.001501
    17 H    -0.000062 -0.000238 -0.000218
    18 H    -0.000086  0.000190  0.000880
    19 H    -0.000155  0.000270 -0.000128
    20 H     0.000037 -0.000350 -0.000255
 ----------------------------------------

 dE(predicted):    -0.22304E-02, dE(actual):    -0.93895E-03, Trust radius:    0.400000, all in a.u.
 
----------------------------------------------------------------------
Geometry Convergence after Step   4       (Hartree/Angstrom,Angstrom)
----------------------------------------------------------------------
current energy                               -4.25322478 Hartree
energy change                      -0.00093895     0.00020000    F
constrained gradient max            0.01142644     0.00010000    F
constrained gradient rms            0.00271386     0.00006667    F
gradient max                        0.01142644
gradient rms                        0.00271386
cart. step max                      0.10830800     0.01000000    F
cart. step rms                      0.03899622     0.00666667    F
 

--------
Geometry
--------
Formula: C5H9N3O3
Atoms
  Index Symbol   x (angstrom)   y (angstrom)   z (angstrom)
      1      C    -1.76444681    -3.22279564     1.49307631
      2      N    -1.06965348    -2.45603705     0.46120645
      3      C    -1.74879896    -1.93290795    -0.59904843
      4      O    -2.96476038    -2.07374877    -0.79894503
      5      C    -0.97202553    -1.12123509    -1.57195713
      6      O     0.28273705    -0.79754162    -1.58329972
      7      N     1.16961741    -1.22583979    -0.61605813
      8      C     2.44683327    -0.68922594    -0.97381961
      9      O     2.70153445     0.06257837    -1.90893494
     10      N     3.35702735    -1.04239419    -0.00047463
     11      C     4.71254289    -0.49810462     0.00351534
     12      H    -1.02322235    -3.62040227     2.19084471
     13      H    -2.47888491    -2.59132281     2.03752493
     14      H    -2.32506986    -4.04913960     1.04090253
     15      H    -0.06974176    -2.24658286     0.51588388
     16      H    -1.51388454    -0.68107421    -2.40459331
     17      H     3.02380748    -1.56380163     0.80157988
     18      H     5.18850340    -0.67014768    -0.96787071
     19      H     5.28910461    -1.00388685     0.78318170
     20      H     4.71448068     0.58381018     0.19646590

Total System Charge              0.00000

 *** GO1_GOStep5 ***

 Energy gradients wrt nuclear displacements
 ==========================================

     Atom      Cartesian (a.u./angstrom)
                 X         Y         Z
 ----------------------------------------
     1 C    -0.000700  0.001165 -0.000072
     2 N    -0.002921 -0.000997  0.000082
     3 C    -0.003661 -0.001978 -0.000707
     4 O     0.004481  0.000464  0.001486
     5 C     0.002013 -0.002436 -0.000789
     6 O    -0.003001  0.002576  0.002135
     7 N    -0.000262  0.009125  0.000709
     8 C     0.007753 -0.022174 -0.019098
     9 O    -0.003853  0.005679  0.011374
    10 N    -0.000791  0.006945  0.003113
    11 C    -0.000442  0.000744  0.000781
    12 H     0.000053 -0.000077 -0.000188
    13 H    -0.000150 -0.000087  0.000100
    14 H     0.000153  0.000111 -0.000021
    15 H     0.000475 -0.000069  0.000381
    16 H     0.001047  0.000903  0.000314
    17 H    -0.000234  0.000369  0.000355
    18 H    -0.000290 -0.000248 -0.000230
    19 H    -0.000209  0.000068  0.000041
    20 H     0.000540 -0.000081  0.000233
 ----------------------------------------

 dE(predicted):    -0.47819E-03, dE(actual):     0.48797E-03, Trust radius:    0.051757, all in a.u.
 
----------------------------------------------------------------------
Geometry Convergence after Step   5       (Hartree/Angstrom,Angstrom)
----------------------------------------------------------------------
current energy                               -4.25273681 Hartree
energy change                       0.00048797     0.00020000    F
constrained gradient max            0.02217466     0.00010000    F
constrained gradient rms            0.00469506     0.00006667    F
gradient max                        0.02217466
gradient rms                        0.00469506
cart. step max                      0.02996667     0.01000000    F
cart. step rms                      0.01174485     0.00666667    F
 

--------
Geometry
--------
Formula: C5H9N3O3
Atoms
  Index Symbol   x (angstrom)   y (angstrom)   z (angstrom)
      1      C    -1.74223582    -3.21810299     1.49140813
      2      N    -1.06148966    -2.44569943     0.45421283
      3      C    -1.75059035    -1.93272453    -0.60511025
      4      O    -2.96710121    -2.08531752    -0.80375908
      5      C    -0.97962765    -1.12053999    -1.58101909
      6      O     0.27496039    -0.79349569    -1.58748340
      7      N     1.15523293    -1.21349602    -0.60943151
      8      C     2.43300778    -0.67168464    -0.95836817
      9      O     2.69729125     0.06311678    -1.90690975
     10      N     3.34294156    -1.03882155     0.01033411
     11      C     4.70582483    -0.51303247     0.00790725
     12      H    -0.99325568    -3.60521982     2.18680463
     13      H    -2.46108812    -2.59313484     2.03749026
     14      H    -2.29574648    -4.05209438     1.04433838
     15      H    -0.06390964    -2.22490347     0.50320995
     16      H    -1.52240918    -0.68911042    -2.41782510
     17      H     3.00681587    -1.55712415     0.81312636
     18      H     5.17494374    -0.68951540    -0.96595510
     19      H     5.27985019    -1.02741109     0.78388608
     20      H     4.72228526     0.56851160     0.20232348

Total System Charge              0.00000

 *** GO1_GOStep6 ***

 Energy gradients wrt nuclear displacements
 ==========================================

     Atom      Cartesian (a.u./angstrom)
                 X         Y         Z
 ----------------------------------------
     1 C    -0.000444  0.000887  0.000261
     2 N     0.000317  0.000016 -0.000300
     3 C    -0.000782 -0.001082 -0.000324
     4 O     0.000403  0.000229  0.000282
     5 C     0.001104 -0.001856 -0.001264
     6 O    -0.001240  0.001505  0.001615
     7 N    -0.001970  0.005345  0.001224
     8 C     0.004793 -0.016159 -0.010156
     9 O    -0.001734  0.006026  0.004248
    10 N     0.000083  0.004235  0.003117
    11 C    -0.000468  0.000317  0.000386
    12 H     0.000018 -0.000106 -0.000115
    13 H    -0.000050 -0.000014  0.000009
    14 H     0.000113  0.000053 -0.000015
    15 H    -0.000325 -0.000270  0.000324
    16 H     0.000216  0.000810  0.000421
    17 H    -0.000126  0.000176  0.000132
    18 H    -0.000052 -0.000107 -0.000052
    19 H    -0.000048  0.000006  0.000046
    20 H     0.000191 -0.000011  0.000161
 ----------------------------------------

 dE(predicted):    -0.47464E-03, dE(actual):    -0.47962E-03, Trust radius:    0.103515, all in a.u.
 
----------------------------------------------------------------------
Geometry Convergence after Step   6       (Hartree/Angstrom,Angstrom)
----------------------------------------------------------------------
current energy                               -4.25321643 Hartree
energy change                      -0.00047962     0.00020000    F
constrained gradient max            0.01614574     0.00010000    F
constrained gradient rms            0.00295538     0.00006667    F
gradient max                        0.01614574
gradient rms                        0.00295538
cart. step max                      0.04251322     0.01000000    F
cart. step rms                      0.02001986     0.00666667    F
 

--------
Geometry
--------
Formula: C5H9N3O3
Atoms
  Index Symbol   x (angstrom)   y (angstrom)   z (angstrom)
      1      C    -1.75458587    -3.22586038     1.48793086
      2      N    -1.07093736    -2.43219770     0.46950731
      3      C    -1.74769651    -1.93565861    -0.60376971
      4      O    -2.95549707    -2.11736801    -0.82744954
      5      C    -0.97476017    -1.11993204    -1.57464576
      6      O     0.27655547    -0.78159179    -1.57302726
      7      N     1.15290888    -1.18697169    -0.58569550
      8      C     2.42386976    -0.62917142    -0.92866154
      9      O     2.69126910     0.07508948    -1.89819191
     10      N     3.34321214    -1.01939575     0.01909923
     11      C     4.71776831    -0.52640137    -0.01048141
     12      H    -1.01237841    -3.59454446     2.20050065
     13      H    -2.50240825    -2.62119544     2.01810011
     14      H    -2.27557468    -4.07308887     1.02619407
     15      H    -0.08028757    -2.18568455     0.54046773
     16      H    -1.50946613    -0.71936047    -2.43213210
     17      H     3.01182531    -1.53250996     0.82725676
     18      H     5.16265250    -0.71173279    -0.99416817
     19      H     5.29518963    -1.05629406     0.75262179
     20      H     4.76404093     0.55406986     0.18572439

Total System Charge              0.00000

 *** GO1_GOStep7 ***

 Energy gradients wrt nuclear displacements
 ==========================================

     Atom      Cartesian (a.u./angstrom)
                 X         Y         Z
 ----------------------------------------
     1 C     0.000049  0.000326 -0.000598
     2 N    -0.002492 -0.000683 -0.001219
     3 C    -0.000663  0.000051  0.001540
     4 O     0.002086  0.000239  0.000523
     5 C     0.001040 -0.001205  0.000002
     6 O    -0.000304  0.001207  0.001153
     7 N     0.001008  0.000653 -0.002088
     8 C     0.001436 -0.000406 -0.000193
     9 O    -0.000753 -0.001412  0.001980
    10 N    -0.000738  0.000907 -0.001225
    11 C    -0.000736 -0.000186 -0.000063
    12 H     0.000030 -0.000068  0.000040
    13 H    -0.000035  0.000296 -0.000021
    14 H    -0.000186 -0.000311  0.000025
    15 H     0.000108  0.000906  0.000440
    16 H     0.000196 -0.000141 -0.000519
    17 H    -0.000145 -0.000172 -0.000083
    18 H     0.000180 -0.000080  0.000037
    19 H     0.000054 -0.000131  0.000146
    20 H    -0.000135  0.000210  0.000124
 ----------------------------------------

 dE(predicted):    -0.39638E-03, dE(actual):    -0.34601E-03, Trust radius:    0.207030, all in a.u.
 
----------------------------------------------------------------------
Geometry Convergence after Step   7       (Hartree/Angstrom,Angstrom)
----------------------------------------------------------------------
current energy                               -4.25356244 Hartree
energy change                      -0.00034601     0.00020000    F
constrained gradient max            0.00246882     0.00010000    F
constrained gradient rms            0.00082884     0.00006667    F
gradient max                        0.00246882
gradient rms                        0.00082884
cart. step max                      0.06054327     0.01000000    F
cart. step rms                      0.01853282     0.00666667    F
 

--------
Geometry
--------
Formula: C5H9N3O3
Atoms
  Index Symbol   x (angstrom)   y (angstrom)   z (angstrom)
      1      C    -1.73389144    -3.23071949     1.48178098
      2      N    -1.06196017    -2.43417257     0.45696781
      3      C    -1.75110848    -1.93552464    -0.60998378
      4      O    -2.96040348    -2.12121868    -0.82833858
      5      C    -0.98420842    -1.11081492    -1.57702614
      6      O     0.26692280    -0.76884330    -1.56869439
      7      N     1.13517609    -1.15584509    -0.56454129
      8      C     2.41307535    -0.61964407    -0.92011637
      9      O     2.69371514     0.05084762    -1.91073565
     10      N     3.32678009    -0.99850129     0.04045109
     11      C     4.71394778    -0.54132624    -0.00874886
     12      H    -0.98355409    -3.60246199     2.18386284
     13      H    -2.47480514    -2.62763219     2.02290975
     14      H    -2.26141726    -4.07512823     1.02306922
     15      H    -0.06894368    -2.19379897     0.51321447
     16      H    -1.51833686    -0.71116637    -2.43491949
     17      H     2.98579332    -1.47628289     0.86603947
     18      H     5.15038159    -0.77227606    -0.98629174
     19      H     5.27978409    -1.05881114     0.77113175
     20      H     4.78875278     0.54352053     0.14914892

Total System Charge              0.00000

 *** GO1_GOStep8 ***

 Energy gradients wrt nuclear displacements
 ==========================================

     Atom      Cartesian (a.u./angstrom)
                 X         Y         Z
 ----------------------------------------
     1 C    -0.000252  0.000611  0.000914
     2 N     0.001653 -0.000202 -0.000200
     3 C     0.000228  0.000564 -0.000523
     4 O    -0.000980 -0.000189 -0.000539
     5 C    -0.000780 -0.000057 -0.000693
     6 O     0.001418 -0.000240 -0.000119
     7 N    -0.000750 -0.000126  0.002052
     8 C    -0.001118  0.000714 -0.000187
     9 O     0.000514  0.000026 -0.000639
    10 N     0.000013 -0.000671  0.000353
    11 C     0.000546 -0.000083 -0.000203
    12 H    -0.000145  0.000019 -0.000069
    13 H    -0.000064 -0.000081 -0.000018
    14 H     0.000013  0.000259 -0.000118
    15 H    -0.000080 -0.000514 -0.000368
    16 H    -0.000141  0.000053  0.000183
    17 H    -0.000044 -0.000036 -0.000131
    18 H    -0.000036  0.000023  0.000330
    19 H     0.000036 -0.000010 -0.000001
    20 H    -0.000029 -0.000061 -0.000025
 ----------------------------------------

 dE(predicted):    -0.52194E-04, dE(actual):     0.30710E-04, Trust radius:    0.020000, all in a.u.
 
----------------------------------------------------------------------
Geometry Convergence after Step   8       (Hartree/Angstrom,Angstrom)
----------------------------------------------------------------------
current energy                               -4.25353173 Hartree
energy change                       0.00003071     0.00020000    T
constrained gradient max            0.00205615     0.00010000    F
constrained gradient rms            0.00054688     0.00006667    F
gradient max                        0.00205615
gradient rms                        0.00054688
cart. step max                      0.01125774     0.01000000    F
cart. step rms                      0.00408335     0.00666667    T
 

--------
Geometry
--------
Formula: C5H9N3O3
Atoms
  Index Symbol   x (angstrom)   y (angstrom)   z (angstrom)
      1      C    -1.73729089    -3.23126670     1.48265584
      2      N    -1.06398140    -2.43151076     0.46161777
      3      C    -1.75078377    -1.93371619    -0.60648287
      4      O    -2.95999017    -2.11845658    -0.82455280
      5      C    -0.98396784    -1.11102973    -1.57573084
      6      O     0.26767019    -0.77237901    -1.57377426
      7      N     1.14013227    -1.16451490    -0.57579903
      8      C     2.41720286    -0.62282582    -0.92565188
      9      O     2.69671948     0.05514905    -1.91144357
     10      N     3.32960827    -1.00183102     0.03557171
     11      C     4.71465313    -0.53856041    -0.00738818
     12      H    -0.98835657    -3.60162334     2.18705734
     13      H    -2.48160276    -2.63052208     2.02187959
     14      H    -2.26101578    -4.07673767     1.02135595
     15      H    -0.07166768    -2.18902560     0.52141880
     16      H    -1.51986356    -0.71152196    -2.43268605
     17      H     2.98840574    -1.48467792     0.85817812
     18      H     5.15510908    -0.76346432    -0.98471107
     19      H     5.28020336    -1.05718410     0.77200700
     20      H     4.78451602     0.54589907     0.15565842

Total System Charge              0.00000

 *** GO1_GOStep9 ***

 Energy gradients wrt nuclear displacements
 ==========================================

     Atom      Cartesian (a.u./angstrom)
                 X         Y         Z
 ----------------------------------------
     1 C    -0.000111  0.000306  0.000265
     2 N     0.000295 -0.000256 -0.000293
     3 C     0.000086  0.000086 -0.000136
     4 O    -0.000198  0.000041 -0.000117
     5 C    -0.000021 -0.000006 -0.000215
     6 O    -0.000417 -0.000374 -0.000029
     7 N    -0.000193  0.000459  0.000066
     8 C     0.000326 -0.000139  0.000585
     9 O     0.000206  0.000093 -0.000272
    10 N     0.000112 -0.000159  0.000050
    11 C     0.000156 -0.000076  0.000003
    12 H    -0.000087  0.000032 -0.000037
    13 H    -0.000045  0.000090 -0.000036
    14 H    -0.000066  0.000109 -0.000046
    15 H    -0.000046 -0.000033  0.000031
    16 H     0.000025  0.000009 -0.000029
    17 H    -0.000024 -0.000035 -0.000010
    18 H    -0.000011 -0.000065  0.000144
    19 H     0.000024 -0.000043  0.000056
    20 H    -0.000010 -0.000040  0.000020
 ----------------------------------------

 dE(predicted):    -0.22562E-04, dE(actual):    -0.29764E-04, Trust radius:    0.040000, all in a.u.
 
----------------------------------------------------------------------
Geometry Convergence after Step   9       (Hartree/Angstrom,Angstrom)
----------------------------------------------------------------------
current energy                               -4.25356149 Hartree
energy change                      -0.00002976     0.00020000    T
constrained gradient max            0.00057210     0.00010000    F
constrained gradient rms            0.00016976     0.00006667    F
gradient max                        0.00057210
gradient rms                        0.00016976
cart. step max                      0.00913829     0.01000000    T
cart. step rms                      0.00354558     0.00666667    T
 

--------
Geometry
--------
Formula: C5H9N3O3
Atoms
  Index Symbol   x (angstrom)   y (angstrom)   z (angstrom)
      1      C    -1.74057948    -3.23369547     1.48157136
      2      N    -1.06636110    -2.42875315     0.46527676
      3      C    -1.75119044    -1.92954715    -0.60331359
      4      O    -2.96032236    -2.11291654    -0.82279762
      5      C    -0.98223429    -1.10874842    -1.57255460
      6      O     0.27094968    -0.77591285    -1.57325379
      7      N     1.14387265    -1.17365319    -0.57820558
      8      C     2.41919110    -0.62915559    -0.92901025
      9      O     2.69689194     0.04759621    -1.91605776
     10      N     3.33160349    -1.00208105     0.03451459
     11      C     4.71530917    -0.53500776    -0.00822239
     12      H    -0.99266105    -3.60474963     2.18670694
     13      H    -2.48765520    -2.63654629     2.02098777
     14      H    -2.26121005    -4.07873423     1.01598438
     15      H    -0.07385786    -2.18737126     0.52641898
     16      H    -1.51784890    -0.70640455    -2.42836366
     17      H     2.99081623    -1.48279750     0.85855960
     18      H     5.15795206    -0.76233098    -0.98406325
     19      H     5.28100728    -1.04920190     0.77400032
     20      H     4.78202711     0.55021128     0.15100179

Total System Charge              0.00000

 *** GO1_GOStep10 ***

 Energy gradients wrt nuclear displacements
 ==========================================

     Atom      Cartesian (a.u./angstrom)
                 X         Y         Z
 ----------------------------------------
     1 C    -0.000093  0.000032 -0.000022
     2 N    -0.000008 -0.000310 -0.000200
     3 C     0.000041  0.000237  0.000086
     4 O    -0.000127  0.000045 -0.000092
     5 C     0.000078 -0.000175 -0.000040
     6 O     0.000578  0.000115 -0.000074
     7 N    -0.000023 -0.000192  0.000276
     8 C    -0.000130 -0.000085 -0.000229
     9 O     0.000008  0.000096 -0.000136
    10 N    -0.000186 -0.000072  0.000150
    11 C     0.000086 -0.000008  0.000029
    12 H    -0.000076  0.000040 -0.000019
    13 H    -0.000055  0.000122 -0.000023
    14 H    -0.000078  0.000103  0.000017
    15 H    -0.000050  0.000272  0.000120
    16 H     0.000062  0.000021 -0.000046
    17 H    -0.000004 -0.000049  0.000034
    18 H     0.000005 -0.000088  0.000086
    19 H    -0.000042 -0.000050  0.000058
    20 H     0.000016 -0.000055  0.000026
 ----------------------------------------

 dE(predicted):    -0.45848E-05, dE(actual):    -0.95447E-05, Trust radius:    0.040000, all in a.u.
 
----------------------------------------------------------------------
Geometry Convergence after Step  10       (Hartree/Angstrom,Angstrom)
----------------------------------------------------------------------
current energy                               -4.25357104 Hartree
energy change                      -0.00000954     0.00020000    T
constrained gradient max            0.00053667     0.00010000    F
constrained gradient rms            0.00012707     0.00006667    F
gradient max                        0.00053667
gradient rms                        0.00012707
cart. step max                      0.00946912     0.01000000    T
cart. step rms                      0.00304938     0.00666667    T
 

--------
Geometry
--------
Formula: C5H9N3O3
Atoms
  Index Symbol   x (angstrom)   y (angstrom)   z (angstrom)
      1      C    -1.73729725    -3.23480519     1.48057697
      2      N    -1.06548907    -2.42629134     0.46558462
      3      C    -1.75127082    -1.92931674    -0.60336296
      4      O    -2.95988104    -2.11563226    -0.82291277
      5      C    -0.98445009    -1.10571294    -1.57187973
      6      O     0.26832298    -0.77157108    -1.57303275
      7      N     1.14174932    -1.16915122    -0.57825724
      8      C     2.41870439    -0.62888838    -0.92973696
      9      O     2.69937736     0.04208053    -1.91976235
     10      N     3.32916546    -0.99970777     0.03642022
     11      C     4.71452209    -0.53776141    -0.00747987
     12      H    -0.98842259    -3.60370985     2.18583502
     13      H    -2.48694626    -2.64104112     2.02015368
     14      H    -2.25446143    -4.08132220     1.01376263
     15      H    -0.07307992    -2.18428659     0.52565032
     16      H    -1.52088954    -0.70437148    -2.42765450
     17      H     2.98604009    -1.47470996     0.86281033
     18      H     5.15733498    -0.77180011    -0.98169187
     19      H     5.27764776    -1.04982559     0.77801418
     20      H     4.78502357     0.54802470     0.14614302

Total System Charge              0.00000

 *** GO1_GOStep11 ***

 Energy gradients wrt nuclear displacements
 ==========================================

     Atom      Cartesian (a.u./angstrom)
                 X         Y         Z
 ----------------------------------------
     1 C    -0.000054  0.000036 -0.000025
     2 N    -0.000006 -0.000134 -0.000210
     3 C     0.000044 -0.000077 -0.000108
     4 O     0.000027  0.000166  0.000035
     5 C     0.000128 -0.000005  0.000022
     6 O    -0.000111  0.000050  0.000039
     7 N    -0.000041 -0.000029 -0.000093
     8 C     0.000211 -0.000064  0.000019
     9 O     0.000023 -0.000153  0.000107
    10 N    -0.000070  0.000049 -0.000039
    11 C     0.000084 -0.000044  0.000045
    12 H    -0.000074  0.000048 -0.000014
    13 H    -0.000068  0.000125  0.000009
    14 H    -0.000070  0.000122 -0.000016
    15 H    -0.000089  0.000212  0.000124
    16 H     0.000058 -0.000054 -0.000095
    17 H    -0.000010 -0.000059  0.000040
    18 H     0.000026 -0.000092  0.000067
    19 H    -0.000033 -0.000046  0.000065
    20 H     0.000026 -0.000050  0.000030
 ----------------------------------------
 
----------------------------------------------------------------------
Geometry Convergence after Step  11       (Hartree/Angstrom,Angstrom)
----------------------------------------------------------------------
current energy                               -4.25357012 Hartree
energy change                       0.00000092     0.00020000    T
constrained gradient max            0.00019243     0.00010000    F
constrained gradient rms            0.00007227     0.00006667    F
gradient max                        0.00019243
gradient rms                        0.00007227
cart. step max                      0.00488935     0.01000000    T
cart. step rms                      0.00154303     0.00666667    T
 

--------
Geometry
--------
Formula: C5H9N3O3
Atoms
  Index Symbol   x (angstrom)   y (angstrom)   z (angstrom)
      1      C    -1.73498667    -3.23420626     1.48082172
      2      N    -1.06498918    -2.42378034     0.46617035
      3      C    -1.75147457    -1.92891484    -0.60338451
      4      O    -2.95934036    -2.11886860    -0.82394183
      5      C    -0.98570751    -1.10484484    -1.57236248
      6      O     0.26709921    -0.77062730    -1.57424522
      7      N     1.14081523    -1.16800656    -0.57951648
      8      C     2.41795298    -0.62754463    -0.92995371
      9      O     2.69965408     0.04346763    -1.91968786
     10      N     3.32756065    -0.99924037     0.03681187
     11      C     4.71372966    -0.53979006    -0.00664978
     12      H    -0.98539061    -3.60088943     2.18647278
     13      H    -2.48651854    -2.64253509     2.01999669
     14      H    -2.24957207    -4.08225123     1.01387042
     15      H    -0.07210177    -2.18316503     0.52407244
     16      H    -1.52266045    -0.70393316    -2.42800425
     17      H     2.98326162    -1.47299699     0.86341672
     18      H     5.15653213    -0.77494548    -0.98061611
     19      H     5.27564203    -1.05262103     0.77923983
     20      H     4.78619415     0.54589361     0.14666942

Total System Charge              0.00000

 *** GO1_GOStep12 ***

 Energy gradients wrt nuclear displacements
 ==========================================

     Atom      Cartesian (a.u./angstrom)
                 X         Y         Z
 ----------------------------------------
     1 C    -0.000042  0.000066  0.000031
     2 N     0.000094 -0.000155 -0.000182
     3 C    -0.000089  0.000323  0.000076
     4 O     0.000067 -0.000024 -0.000082
     5 C     0.000065 -0.000040 -0.000087
     6 O    -0.000285 -0.000076 -0.000020
     7 N    -0.000003 -0.000055 -0.000143
     8 C     0.000219  0.000040  0.000186
     9 O     0.000087 -0.000098  0.000017
    10 N    -0.000020  0.000013 -0.000010
    11 C     0.000072 -0.000087  0.000052
    12 H    -0.000072  0.000048 -0.000020
    13 H    -0.000060  0.000108  0.000013
    14 H    -0.000065  0.000134 -0.000029
    15 H    -0.000060  0.000071  0.000048
    16 H     0.000048 -0.000033 -0.000070
    17 H    -0.000008 -0.000020  0.000051
    18 H     0.000036 -0.000095  0.000056
    19 H    -0.000012 -0.000051  0.000083
    20 H     0.000027 -0.000070  0.000029
 ----------------------------------------

 dE(predicted):    -0.77526E-06, dE(actual):     0.22316E-05, Trust radius:    0.020000, all in a.u.
 
----------------------------------------------------------------------
Geometry Convergence after Step  12       (Hartree/Angstrom,Angstrom)
----------------------------------------------------------------------
current energy                               -4.25356789 Hartree
energy change                       0.00000223     0.00020000    T
constrained gradient max            0.00032312     0.00010000    F
constrained gradient rms            0.00008509     0.00006667    F
gradient max                        0.00032312
gradient rms                        0.00008509
cart. step max                      0.00805910     0.01000000    T
cart. step rms                      0.00279340     0.00666667    T
 

--------
Geometry
--------
Formula: C5H9N3O3
Atoms
  Index Symbol   x (angstrom)   y (angstrom)   z (angstrom)
      1      C    -1.73462079    -3.23325696     1.48142299
      2      N    -1.06560553    -2.42032869     0.46815757
      3      C    -1.75073798    -1.93133412    -0.60500452
      4      O    -2.95723096    -2.12642867    -0.82861104
      5      C    -0.98598146    -1.10407064    -1.57215078
      6      O     0.26634681    -0.76779739    -1.57287661
      7      N     1.14002374    -1.16539830    -0.57822101
      8      C     2.41698849    -0.62493473    -0.92879046
      9      O     2.69843705     0.04743200    -1.91772029
     10      N     3.32713719    -0.99964893     0.03642229
     11      C     4.71391487    -0.54231382    -0.00763480
     12      H    -0.98568682    -3.59334918     2.19117158
     13      H    -2.49238141    -2.64549070     2.01600641
     14      H    -2.24151297    -4.08582121     1.01416454
     15      H    -0.07294705    -2.17874827     0.52630229
     16      H    -1.52289460    -0.70350924    -2.42797108
     17      H     2.98287062    -1.47388798     0.86274575
     18      H     5.15520692    -0.77603156    -0.98265291
     19      H     5.27600112    -1.05778103     0.77643485
     20      H     4.78837275     0.54289944     0.14798523

Total System Charge              0.00000

 *** GO1_GOStep13 ***

 Energy gradients wrt nuclear displacements
 ==========================================

     Atom      Cartesian (a.u./angstrom)
                 X         Y         Z
 ----------------------------------------
     1 C     0.000004  0.000052  0.000035
     2 N     0.000036  0.000011  0.000007
     3 C    -0.000006 -0.000105 -0.000183
     4 O    -0.000002  0.000130  0.000004
     5 C    -0.000019  0.000043 -0.000070
     6 O    -0.000094  0.000024 -0.000016
     7 N     0.000054 -0.000142 -0.000048
     8 C    -0.000001  0.000172  0.000155
     9 O     0.000111 -0.000049 -0.000117
    10 N    -0.000011 -0.000108  0.000053
    11 C    -0.000010 -0.000102  0.000045
    12 H    -0.000066  0.000050 -0.000023
    13 H    -0.000037  0.000094  0.000028
    14 H    -0.000072  0.000131 -0.000037
    15 H    -0.000029  0.000065  0.000023
    16 H     0.000061 -0.000037 -0.000076
    17 H    -0.000002  0.000017  0.000043
    18 H     0.000051 -0.000097  0.000041
    19 H     0.000010 -0.000063  0.000108
    20 H     0.000024 -0.000089  0.000026
 ----------------------------------------

 dE(predicted):    -0.94169E-06, dE(actual):     0.12074E-05, Trust radius:    0.020000, all in a.u.
 
----------------------------------------------------------------------
Geometry Convergence after Step  13       (Hartree/Angstrom,Angstrom)
----------------------------------------------------------------------
current energy                               -4.25356668 Hartree
energy change                       0.00000121     0.00020000    T
constrained gradient max            0.00021175     0.00010000    F
constrained gradient rms            0.00006027     0.00006667    T
gradient max                        0.00021175
gradient rms                        0.00006027
cart. step max                      0.01033400     0.01000000    F
cart. step rms                      0.00339503     0.00666667    T
 

--------
Geometry
--------
Formula: C5H9N3O3
Atoms
  Index Symbol   x (angstrom)   y (angstrom)   z (angstrom)
      1      C    -1.73764512    -3.23304497     1.48172921
      2      N    -1.06771363    -2.41754402     0.47120221
      3      C    -1.75001024    -1.93322162    -0.60576834
      4      O    -2.95452254    -2.13424633    -0.83463186
      5      C    -0.98498285    -1.10330890    -1.57052860
      6      O     0.26689792    -0.76538887    -1.56951083
      7      N     1.14014968    -1.16274023    -0.57457206
      8      C     2.41703658    -0.62369059    -0.92702459
      9      O     2.69707397     0.04968036    -1.91564076
     10      N     3.32899957    -1.00055429     0.03560321
     11      C     4.71556701    -0.54304579    -0.01039091
     12      H    -0.99085142    -3.58645397     2.19710145
     13      H    -2.50271541    -2.64924612     2.01008320
     14      H    -2.23578588    -4.09021747     1.01331534
     15      H    -0.07553165    -2.17457335     0.53169186
     16      H    -1.52112321    -0.70308691    -2.42699745
     17      H     2.98625198    -1.47617092     0.86175854
     18      H     5.15453677    -0.77395031    -0.98714020
     19      H     5.27964529    -1.06073878     0.77078463
     20      H     4.79042316     0.54174310     0.14811593

Total System Charge              0.00000

 *** GO1_GOStep14 ***

 Energy gradients wrt nuclear displacements
 ==========================================

     Atom      Cartesian (a.u./angstrom)
                 X         Y         Z
 ----------------------------------------
     1 C     0.000005  0.000086 -0.000064
     2 N    -0.000167  0.000002  0.000045
     3 C    -0.000045 -0.000150 -0.000018
     4 O     0.000048  0.000122 -0.000005
     5 C     0.000031 -0.000067 -0.000100
     6 O     0.000202  0.000226  0.000075
     7 N     0.000109 -0.000050 -0.000039
     8 C    -0.000204  0.000076 -0.000053
     9 O     0.000033 -0.000104 -0.000006
    10 N     0.000066 -0.000113  0.000046
    11 C    -0.000147 -0.000077  0.000052
    12 H    -0.000039  0.000032 -0.000009
    13 H    -0.000014  0.000095  0.000036
    14 H    -0.000087  0.000103 -0.000023
    15 H     0.000017  0.000084 -0.000001
    16 H     0.000081 -0.000033 -0.000098
    17 H    -0.000006  0.000016  0.000009
    18 H     0.000064 -0.000099  0.000024
    19 H     0.000023 -0.000069  0.000107
    20 H     0.000028 -0.000081  0.000022
 ----------------------------------------

 dE(predicted):    -0.15126E-05, dE(actual):    -0.17216E-05, Trust radius:    0.040000, all in a.u.
 
----------------------------------------------------------------------
Geometry Convergence after Step  14       (Hartree/Angstrom,Angstrom)
----------------------------------------------------------------------
current energy                               -4.25356840 Hartree
energy change                      -0.00000172     0.00020000    T
constrained gradient max            0.00023902     0.00010000    F
constrained gradient rms            0.00007428     0.00006667    F
gradient max                        0.00023902
gradient rms                        0.00007428
cart. step max                      0.01936811     0.01000000    F
cart. step rms                      0.00640374     0.00666667    T
 

--------
Geometry
--------
Formula: C5H9N3O3
Atoms
  Index Symbol   x (angstrom)   y (angstrom)   z (angstrom)
      1      C    -1.74314162    -3.23174906     1.48270199
      2      N    -1.07131244    -2.41285939     0.47616153
      3      C    -1.74897492    -1.93688924    -0.60741998
      4      O    -2.95036266    -2.14723671    -0.84442458
      5      C    -0.98370058    -1.10247453    -1.56804857
      6      O     0.26806388    -0.76416108    -1.56526585
      7      N     1.14120900    -1.16196308    -0.57043797
      8      C     2.41740171    -0.62193806    -0.92391899
      9      O     2.69446469     0.05639844    -1.90999651
     10      N     3.33289965    -1.00322288     0.03367452
     11      C     4.71865079    -0.54358207    -0.01480518
     12      H    -1.00089628    -3.57140112     2.20938852
     13      H    -2.52208351    -2.65485202     1.99793014
     14      H    -2.22447623    -4.09815503     1.01342616
     15      H    -0.07996417    -2.16764923     0.54051084
     16      H    -1.51900544    -0.70119296    -2.42452261
     17      H     2.99349755    -1.48396408     0.85825555
     18      H     5.15339280    -0.76638007    -0.99529946
     19      H     5.28701206    -1.06661152     0.75963879
     20      H     4.79302574     0.54008370     0.15163166

Total System Charge              0.00000

 *** GO1_GOStep15 ***

 Energy gradients wrt nuclear displacements
 ==========================================

     Atom      Cartesian (a.u./angstrom)
                 X         Y         Z
 ----------------------------------------
     1 C    -0.000001  0.000139 -0.000082
     2 N    -0.000201  0.000074  0.000163
     3 C     0.000052 -0.000390 -0.000051
     4 O    -0.000129  0.000157 -0.000069
     5 C    -0.000089  0.000000 -0.000121
     6 O     0.000510  0.000128  0.000055
     7 N     0.000171  0.000051 -0.000038
     8 C    -0.000538 -0.000007 -0.000153
     9 O     0.000025 -0.000084  0.000059
    10 N     0.000328 -0.000135  0.000079
    11 C    -0.000234 -0.000060  0.000095
    12 H    -0.000037  0.000014 -0.000008
    13 H     0.000068  0.000071  0.000030
    14 H    -0.000114  0.000068 -0.000014
    15 H     0.000013  0.000143  0.000004
    16 H     0.000064  0.000023 -0.000038
    17 H    -0.000036  0.000024 -0.000013
    18 H     0.000073 -0.000097  0.000027
    19 H     0.000030 -0.000056  0.000067
    20 H     0.000044 -0.000063  0.000007
 ----------------------------------------
 
----------------------------------------------------------------------
Geometry Convergence after Step  15       (Hartree/Angstrom,Angstrom)
----------------------------------------------------------------------
current energy                               -4.25356747 Hartree
energy change                       0.00000093     0.00020000    T
constrained gradient max            0.00056197     0.00010000    F
constrained gradient rms            0.00013982     0.00006667    F
gradient max                        0.00056197
gradient rms                        0.00013982
cart. step max                      0.02024302     0.01000000    F
cart. step rms                      0.00615486     0.00666667    T
 

--------
Geometry
--------
Formula: C5H9N3O3
Atoms
  Index Symbol   x (angstrom)   y (angstrom)   z (angstrom)
      1      C    -1.74865960    -3.23244534     1.48239762
      2      N    -1.07454222    -2.40890816     0.48111090
      3      C    -1.74791491    -1.93883818    -0.60762966
      4      O    -2.94606398    -2.15845305    -0.85241522
      5      C    -0.98273699    -1.10007485    -1.56433341
      6      O     0.26876037    -0.76141369    -1.56025211
      7      N     1.14177052    -1.15853447    -0.56500309
      8      C     2.41826137    -0.62062144    -0.92127267
      9      O     2.69372069     0.05790007    -1.90777381
     10      N     3.33609287    -1.00319716     0.03344650
     11      C     4.72201434    -0.54446249    -0.01969908
     12      H    -1.01189440    -3.55832525     2.22086445
     13      H    -2.54232653    -2.66362160     1.98376323
     14      H    -2.21187873    -4.10784056     1.01133610
     15      H    -0.08423730    -2.16105289     0.55020165
     16      H    -1.51733648    -0.69860502    -2.42115411
     17      H     2.99915777    -1.48503447     0.85843887
     18      H     5.15185473    -0.76438976    -1.00296132
     19      H     5.29356099    -1.07052226     0.75027819
     20      H     4.79809749     0.53864056     0.14983695

Total System Charge              0.00000

 *** GO1_GOStep16 ***

 Energy gradients wrt nuclear displacements
 ==========================================

     Atom      Cartesian (a.u./angstrom)
                 X         Y         Z
 ----------------------------------------
     1 C     0.000003  0.000226 -0.000071
     2 N    -0.000232  0.000037  0.000096
     3 C    -0.000004 -0.000288  0.000062
     4 O    -0.000043  0.000053 -0.000117
     5 C    -0.000007  0.000008 -0.000098
     6 O     0.000410  0.000000  0.000038
     7 N     0.000173  0.000183 -0.000045
     8 C    -0.000526 -0.000216 -0.000091
     9 O     0.000046  0.000008  0.000005
    10 N     0.000406 -0.000130  0.000054
    11 C    -0.000206 -0.000045  0.000081
    12 H    -0.000054  0.000012 -0.000010
    13 H     0.000062  0.000070  0.000024
    14 H    -0.000162  0.000010 -0.000022
    15 H     0.000008  0.000188  0.000040
    16 H     0.000057  0.000047 -0.000007
    17 H    -0.000058 -0.000010  0.000014
    18 H     0.000066 -0.000094  0.000045
    19 H     0.000007 -0.000039  0.000015
    20 H     0.000055 -0.000021 -0.000013
 ----------------------------------------

 dE(predicted):    -0.26877E-05, dE(actual):     0.54199E-05, Trust radius:    0.020000, all in a.u.
 
----------------------------------------------------------------------
Geometry Convergence after Step  16       (Hartree/Angstrom,Angstrom)
----------------------------------------------------------------------
current energy                               -4.25356205 Hartree
energy change                       0.00000542     0.00020000    T
constrained gradient max            0.00054936     0.00010000    F
constrained gradient rms            0.00013341     0.00006667    F
gradient max                        0.00054936
gradient rms                        0.00013341
cart. step max                      0.00576930     0.01000000    T
cart. step rms                      0.00222360     0.00666667    T
 

--------
Geometry
--------
Formula: C5H9N3O3
Atoms
  Index Symbol   x (angstrom)   y (angstrom)   z (angstrom)
      1      C    -1.74939163    -3.23419989     1.48119662
      2      N    -1.07449956    -2.40898981     0.48167083
      3      C    -1.74813677    -1.93667380    -0.60595357
      4      O    -2.94652113    -2.15564068    -0.85017641
      5      C    -0.98314603    -1.09796935    -1.56257168
      6      O     0.26877052    -0.76139666    -1.55980278
      7      N     1.14199086    -1.15846914    -0.56453787
      8      C     2.41923523    -0.62249429    -0.92209299
      9      O     2.69557737     0.05213077    -1.91103732
     10      N     3.33617786    -1.00134043     0.03477332
     11      C     4.72259614    -0.54396325    -0.02026213
     12      H    -1.01443508    -3.55613791     2.22317276
     13      H    -2.54752640    -2.66784819     1.97826558
     14      H    -2.20712130    -4.11205885     1.00941394
     15      H    -0.08395299    -2.16240794     0.55091588
     16      H    -1.51808510    -0.69595045    -2.41892971
     17      H     2.99900240    -1.48052340     0.86123259
     18      H     5.15142917    -0.76677627    -1.00327541
     19      H     5.29405261    -1.06859535     0.75072289
     20      H     4.79968383     0.53950490     0.14645545

Total System Charge              0.00000

 *** GO1_GOStep17 ***

 Energy gradients wrt nuclear displacements
 ==========================================

     Atom      Cartesian (a.u./angstrom)
                 X         Y         Z
 ----------------------------------------
     1 C    -0.000035  0.000116 -0.000057
     2 N    -0.000076  0.000025 -0.000006
     3 C    -0.000027 -0.000074  0.000013
     4 O     0.000049 -0.000009 -0.000085
     5 C     0.000065  0.000088 -0.000032
     6 O     0.000051 -0.000188 -0.000063
     7 N     0.000080  0.000183  0.000005
     8 C    -0.000152 -0.000284 -0.000006
     9 O     0.000070  0.000023 -0.000009
    10 N     0.000235 -0.000059  0.000017
    11 C    -0.000057  0.000021  0.000052
    12 H    -0.000069  0.000006 -0.000001
    13 H    -0.000001  0.000092  0.000040
    14 H    -0.000135  0.000069 -0.000012
    15 H    -0.000038  0.000146  0.000070
    16 H     0.000032  0.000047  0.000007
    17 H    -0.000049 -0.000058  0.000043
    18 H     0.000030 -0.000088  0.000053
    19 H    -0.000022 -0.000036 -0.000005
    20 H     0.000050 -0.000021 -0.000024
 ----------------------------------------

 dE(predicted):    -0.14938E-05, dE(actual):    -0.26588E-05, Trust radius:    0.040000, all in a.u.
 
----------------------------------------------------------------------
Geometry Convergence after Step  17       (Hartree/Angstrom,Angstrom)
----------------------------------------------------------------------
current energy                               -4.25356470 Hartree
energy change                      -0.00000266     0.00020000    T
constrained gradient max            0.00024568     0.00010000    F
constrained gradient rms            0.00007401     0.00006667    F
gradient max                        0.00024568
gradient rms                        0.00007401
cart. step max                      0.01512364     0.01000000    F
cart. step rms                      0.00387922     0.00666667    T
 

--------
Geometry
--------
Formula: C5H9N3O3
Atoms
  Index Symbol   x (angstrom)   y (angstrom)   z (angstrom)
      1      C    -1.74639956    -3.23527515     1.48020153
      2      N    -1.07305100    -2.40726229     0.48180903
      3      C    -1.74820758    -1.93463666    -0.60481683
      4      O    -2.94667744    -2.15487397    -0.84767811
      5      C    -0.98507194    -1.09503247    -1.56179296
      6      O     0.26680676    -0.75859602    -1.56036619
      7      N     1.14054424    -1.15603515    -0.56543024
      8      C     2.41874959    -0.62159897    -0.92297256
      9      O     2.69719368     0.04890348    -1.91404449
     10      N     3.33340507    -0.99820928     0.03675249
     11      C     4.72188116    -0.54687645    -0.01965675
     12      H    -1.01327186    -3.54633308     2.22859421
     13      H    -2.55362862    -2.67463322     1.96890951
     14      H    -2.19199766    -4.11986747     1.00944982
     15      H    -0.08190176    -2.16274296     0.54882060
     16      H    -1.52105062    -0.69358001    -2.41777881
     17      H     2.99444397    -1.47385141     0.86449536
     18      H     5.14898353    -0.77319277    -1.00259708
     19      H     5.29138053    -1.07261243     0.75204087
     20      H     4.80356950     0.53650628     0.14524059

Total System Charge              0.00000

 *** GO1_GOStep18 ***

 Energy gradients wrt nuclear displacements
 ==========================================

     Atom      Cartesian (a.u./angstrom)
                 X         Y         Z
 ----------------------------------------
     1 C    -0.000123 -0.000060  0.000015
     2 N     0.000171  0.000101 -0.000069
     3 C     0.000037  0.000195 -0.000125
     4 O     0.000060 -0.000107 -0.000042
     5 C     0.000143  0.000123  0.000054
     6 O    -0.000466 -0.000254 -0.000177
     7 N    -0.000025 -0.000000  0.000057
     8 C     0.000405 -0.000017  0.000083
     9 O     0.000070 -0.000074  0.000034
    10 N    -0.000156 -0.000053 -0.000056
    11 C     0.000158  0.000032  0.000015
    12 H    -0.000049  0.000017  0.000013
    13 H    -0.000067  0.000114  0.000057
    14 H    -0.000067  0.000181 -0.000004
    15 H    -0.000092  0.000009  0.000060
    16 H     0.000009  0.000002 -0.000018
    17 H     0.000000 -0.000042  0.000060
    18 H    -0.000001 -0.000082  0.000038
    19 H    -0.000025 -0.000040  0.000029
    20 H     0.000017 -0.000045 -0.000024
 ----------------------------------------

 dE(predicted):    -0.27941E-05, dE(actual):    -0.15643E-05, Trust radius:    0.040000, all in a.u.
 
----------------------------------------------------------------------
Geometry Convergence after Step  18       (Hartree/Angstrom,Angstrom)
----------------------------------------------------------------------
current energy                               -4.25356627 Hartree
energy change                      -0.00000156     0.00020000    T
constrained gradient max            0.00049279     0.00010000    F
constrained gradient rms            0.00011209     0.00006667    F
gradient max                        0.00049279
gradient rms                        0.00011209
cart. step max                      0.01455559     0.01000000    F
cart. step rms                      0.00366830     0.00666667    T
 

--------
Geometry
--------
Formula: C5H9N3O3
Atoms
  Index Symbol   x (angstrom)   y (angstrom)   z (angstrom)
      1      C    -1.74489723    -3.23539313     1.47992314
      2      N    -1.07246373    -2.40638884     0.48170826
      3      C    -1.74827504    -1.93395076    -0.60460342
      4      O    -2.94695949    -2.15412123    -0.84655376
      5      C    -0.98588722    -1.09379492    -1.56152763
      6      O     0.26593966    -0.75694345    -1.56016030
      7      N     1.13971297    -1.15486157    -0.56541575
      8      C     2.41807049    -0.62039047    -0.92278559
      9      O     2.69682679     0.04956118    -1.91411912
     10      N     3.33211254    -0.99695762     0.03743767
     11      C     4.72168550    -0.54896837    -0.01975218
     12      H    -1.01440176    -3.53359843     2.23605703
     13      H    -2.56177160    -2.67990841     1.95820316
     14      H    -2.17744208    -4.12795784     1.01193956
     15      H    -0.08101821    -2.16279225     0.54748772
     16      H    -1.52223651    -0.69234479    -2.41728829
     17      H     2.99286074    -1.47288413     0.86486314
     18      H     5.14665642    -0.77391191    -1.00390011
     19      H     5.29093374    -1.07797739     0.74989524
     20      H     4.80625403     0.53378432     0.14777122

Total System Charge              0.00000

 *** GO1_GOStep19 ***

 Energy gradients wrt nuclear displacements
 ==========================================

     Atom      Cartesian (a.u./angstrom)
                 X         Y         Z
 ----------------------------------------
     1 C    -0.000167 -0.000183  0.000050
     2 N     0.000263  0.000184 -0.000078
     3 C     0.000118  0.000146 -0.000265
     4 O     0.000034 -0.000043  0.000009
     5 C     0.000081  0.000083  0.000097
     6 O    -0.000402 -0.000187 -0.000201
     7 N    -0.000123 -0.000134  0.000155
     8 C     0.000542  0.000105  0.000066
     9 O     0.000045 -0.000084  0.000008
    10 N    -0.000356 -0.000054 -0.000051
    11 C     0.000269  0.000002  0.000009
    12 H    -0.000041  0.000039  0.000008
    13 H    -0.000087  0.000122  0.000039
    14 H    -0.000040  0.000199  0.000010
    15 H    -0.000117 -0.000013  0.000051
    16 H    -0.000010 -0.000015 -0.000028
    17 H     0.000036 -0.000018  0.000046
    18 H    -0.000011 -0.000074  0.000041
    19 H    -0.000026 -0.000031  0.000049
    20 H    -0.000007 -0.000046 -0.000016
 ----------------------------------------

 dE(predicted):    -0.19588E-05, dE(actual):    -0.50055E-05, Trust radius:    0.080000, all in a.u.
 
----------------------------------------------------------------------
Geometry Convergence after Step  19       (Hartree/Angstrom,Angstrom)
----------------------------------------------------------------------
current energy                               -4.25357127 Hartree
energy change                      -0.00000501     0.00020000    T
constrained gradient max            0.00052089     0.00010000    F
constrained gradient rms            0.00013923     0.00006667    F
gradient max                        0.00052089
gradient rms                        0.00013923
cart. step max                      0.02907075     0.01000000    F
cart. step rms                      0.00797678     0.00666667    F
 

--------
Geometry
--------
Formula: C5H9N3O3
Atoms
  Index Symbol   x (angstrom)   y (angstrom)   z (angstrom)
      1      C    -1.74325439    -3.23366270     1.48075305
      2      N    -1.07240258    -2.40401179     0.48219273
      3      C    -1.74833270    -1.93419912    -0.60511341
      4      O    -2.94650825    -2.15656745    -0.84764802
      5      C    -0.98680026    -1.09250697    -1.56137141
      6      O     0.26479689    -0.75417380    -1.55932927
      7      N     1.13876262    -1.15365074    -0.56556315
      8      C     2.41670009    -0.61754499    -0.92173394
      9      O     2.69463423     0.05611520    -1.91074729
     10      N     3.33113927    -0.99774460     0.03659600
     11      C     4.72151362    -0.55250715    -0.02034188
     12      H    -1.01915810    -3.50452768     2.25311982
     13      H    -2.57962643    -2.68884022     1.93658370
     14      H    -2.14862681    -4.14281378     1.01996696
     15      H    -0.08044449    -2.16180084     0.54593171
     16      H    -1.52324123    -0.69126493    -2.41716882
     17      H     2.99265805    -1.47929285     0.86104796
     18      H     5.14233324    -0.76761138    -1.00842685
     19      H     5.29214637    -1.09129278     0.74147658
     20      H     4.80941085     0.52809859     0.15895554

Total System Charge              0.00000

 *** GO1_GOStep20 ***

 Energy gradients wrt nuclear displacements
 ==========================================

     Atom      Cartesian (a.u./angstrom)
                 X         Y         Z
 ----------------------------------------
     1 C    -0.000219 -0.000103  0.000017
     2 N     0.000212  0.000195 -0.000082
     3 C     0.000189  0.000107 -0.000220
     4 O    -0.000017 -0.000024 -0.000003
     5 C    -0.000021 -0.000035  0.000107
     6 O    -0.000081  0.000028 -0.000094
     7 N    -0.000168 -0.000223  0.000126
     8 C     0.000499  0.000180  0.000013
     9 O     0.000016 -0.000118  0.000011
    10 N    -0.000415 -0.000019 -0.000030
    11 C     0.000245 -0.000058  0.000043
    12 H    -0.000008  0.000076  0.000011
    13 H    -0.000116  0.000108  0.000056
    14 H    -0.000092  0.000144 -0.000024
    15 H    -0.000079 -0.000048 -0.000004
    16 H     0.000013 -0.000065 -0.000073
    17 H     0.000067 -0.000005  0.000011
    18 H     0.000010 -0.000070  0.000052
    19 H    -0.000024 -0.000023  0.000077
    20 H    -0.000012 -0.000047  0.000006
 ----------------------------------------

 dE(predicted):    -0.25588E-05, dE(actual):    -0.19728E-04, Trust radius:    0.160000, all in a.u.
 
----------------------------------------------------------------------
Geometry Convergence after Step  20       (Hartree/Angstrom,Angstrom)
----------------------------------------------------------------------
current energy                               -4.25359100 Hartree
energy change                      -0.00001973     0.00020000    T
constrained gradient max            0.00047366     0.00010000    F
constrained gradient rms            0.00012394     0.00006667    F
gradient max                        0.00047366
gradient rms                        0.00012394
cart. step max                      0.06494814     0.01000000    F
cart. step rms                      0.01666980     0.00666667    F
 

--------
Geometry
--------
Formula: C5H9N3O3
Atoms
  Index Symbol   x (angstrom)   y (angstrom)   z (angstrom)
      1      C    -1.73723670    -3.23065707     1.48190046
      2      N    -1.07209381    -2.39731796     0.48313791
      3      C    -1.74886706    -1.93414963    -0.60635882
      4      O    -2.94542132    -2.16303890    -0.85084840
      5      C    -0.98942659    -1.08906212    -1.56148367
      6      O     0.26166530    -0.74762833    -1.55799910
      7      N     1.13521497    -1.14812450    -0.56473207
      8      C     2.41313221    -0.61192808    -0.91949491
      9      O     2.69065166     0.06717524    -1.90485316
     10      N     3.32779026    -0.99936947     0.03565487
     11      C     4.72021608    -0.56151837    -0.02123255
     12      H    -1.02852888    -3.44407148     2.28580548
     13      H    -2.61295652    -2.71258739     1.89152207
     14      H    -2.08367867    -4.17219252     1.03740663
     15      H    -0.08016153    -2.15375154     0.54397027
     16      H    -1.52614585    -0.68799254    -2.41717694
     17      H     2.98979147    -1.48997205     0.85493137
     18      H     5.13277980    -0.75889993    -1.01640246
     19      H     5.29259796    -1.11926286     0.72553360
     20      H     4.81637722     0.51454949     0.17989942

Total System Charge              0.00000

 *** GO1_GOStep21 ***

 Energy gradients wrt nuclear displacements
 ==========================================

     Atom      Cartesian (a.u./angstrom)
                 X         Y         Z
 ----------------------------------------
     1 C    -0.000285 -0.000174 -0.000424
     2 N     0.000113  0.000241 -0.000096
     3 C     0.000296  0.000001  0.000007
     4 O    -0.000150  0.000004  0.000032
     5 C    -0.000129 -0.000366 -0.000014
     6 O     0.000561  0.000304  0.000165
     7 N    -0.000303 -0.000230  0.000082
     8 C     0.000271  0.000114 -0.000037
     9 O    -0.000037 -0.000123  0.000072
    10 N    -0.000327  0.000126 -0.000052
    11 C     0.000176 -0.000175  0.000119
    12 H    -0.000028  0.000183 -0.000076
    13 H    -0.000120  0.000098  0.000063
    14 H    -0.000101  0.000235  0.000010
    15 H    -0.000061  0.000020 -0.000025
    16 H     0.000033 -0.000059 -0.000076
    17 H     0.000067 -0.000011  0.000018
    18 H     0.000074 -0.000093  0.000087
    19 H    -0.000036  0.000005  0.000090
    20 H    -0.000012 -0.000100  0.000053
 ----------------------------------------

 dE(predicted):    -0.74650E-05, dE(actual):    -0.29654E-04, Trust radius:    0.320000, all in a.u.
 
----------------------------------------------------------------------
Geometry Convergence after Step  21       (Hartree/Angstrom,Angstrom)
----------------------------------------------------------------------
current energy                               -4.25362066 Hartree
energy change                      -0.00002965     0.00020000    T
constrained gradient max            0.00051018     0.00010000    F
constrained gradient rms            0.00016142     0.00006667    F
gradient max                        0.00051018
gradient rms                        0.00016142
cart. step max                      0.13450191     0.01000000    F
cart. step rms                      0.03383246     0.00666667    F
 

--------
Geometry
--------
Formula: C5H9N3O3
Atoms
  Index Symbol   x (angstrom)   y (angstrom)   z (angstrom)
      1      C    -1.72143004    -3.22241632     1.48610369
      2      N    -1.07015473    -2.38490869     0.48280030
      3      C    -1.75038834    -1.93384801    -0.60964919
      4      O    -2.94429642    -2.17361439    -0.85621784
      5      C    -0.99558159    -1.08238472    -1.56361493
      6      O     0.25490838    -0.73627050    -1.55889658
      7      N     1.12814851    -1.14008708    -0.56764958
      8      C     2.40580426    -0.60243554    -0.91724110
      9      O     2.68326846     0.09120978    -1.89240024
     10      N     3.31996203    -1.00713816     0.03129161
     11      C     4.71496540    -0.57924900    -0.01987606
     12      H    -1.05332221    -3.32024539     2.34508808
     13      H    -2.66593534    -2.76592480     1.80279880
     14      H    -1.94917676    -4.21924732     1.08534549
     15      H    -0.07835597    -2.13771369     0.53606618
     16      H    -1.53335586    -0.68077236    -2.41836915
     17      H     2.98192913    -1.51996190     0.83682281
     18      H     5.11435141    -0.73358136    -1.02779352
     19      H     5.29023043    -1.17637309     0.69367204
     20      H     4.82412926     0.48516255     0.23089919

Total System Charge              0.00000

 *** GO1_GOStep22 ***

 Energy gradients wrt nuclear displacements
 ==========================================

     Atom      Cartesian (a.u./angstrom)
                 X         Y         Z
 ----------------------------------------
     1 C     0.000438  0.000071 -0.000466
     2 N    -0.000081  0.000360 -0.000056
     3 C     0.000378 -0.000277  0.000340
     4 O    -0.000368  0.000005  0.000210
     5 C    -0.000438 -0.000780 -0.000317
     6 O     0.001603  0.000689  0.000635
     7 N    -0.000522 -0.000143 -0.000120
     8 C    -0.000377 -0.000143 -0.000104
     9 O    -0.000095 -0.000076  0.000090
    10 N    -0.000054  0.000373 -0.000009
    11 C    -0.000216 -0.000111  0.000014
    12 H    -0.000237  0.000449 -0.000538
    13 H     0.000205 -0.000145 -0.000031
    14 H    -0.000140  0.000047  0.000173
    15 H    -0.000095  0.000184 -0.000102
    16 H     0.000067 -0.000025 -0.000141
    17 H    -0.000055 -0.000091  0.000022
    18 H     0.000125 -0.000124  0.000123
    19 H    -0.000119 -0.000022  0.000204
    20 H    -0.000020 -0.000244  0.000073
 ----------------------------------------

 dE(predicted):    -0.13288E-04, dE(actual):     0.34778E-04, Trust radius:    0.080000, all in a.u.
 
----------------------------------------------------------------------
Geometry Convergence after Step  22       (Hartree/Angstrom,Angstrom)
----------------------------------------------------------------------
current energy                               -4.25358588 Hartree
energy change                       0.00003478     0.00020000    T
constrained gradient max            0.00156143     0.00010000    F
constrained gradient rms            0.00033991     0.00006667    F
gradient max                        0.00156143
gradient rms                        0.00033991
cart. step max                      0.03604524     0.01000000    F
cart. step rms                      0.01013591     0.00666667    F
 

--------
Geometry
--------
Formula: C5H9N3O3
Atoms
  Index Symbol   x (angstrom)   y (angstrom)   z (angstrom)
      1      C    -1.74083514    -3.22635280     1.48489658
      2      N    -1.07657034    -2.38754193     0.49047901
      3      C    -1.74797530    -1.93670878    -0.60755657
      4      O    -2.93974379    -2.17900749    -0.86219180
      5      C    -0.99028970    -1.08279853    -1.55619801
      6      O     0.26043091    -0.73939097    -1.55065783
      7      N     1.13514787    -1.14480960    -0.56073506
      8      C     2.41159841    -0.60461302    -0.91445598
      9      O     2.68449938     0.08659059    -1.89265641
     10      N     3.33055348    -1.00358027     0.03166530
     11      C     4.72400591    -0.57028228    -0.02865140
     12      H    -1.07362434    -3.34581967     2.34201976
     13      H    -2.67785789    -2.75883178     1.80871632
     14      H    -1.98522201    -4.21350171     1.07097326
     15      H    -0.08377911    -2.14703650     0.55066059
     16      H    -1.52636219    -0.68053299    -2.41169650
     17      H     2.99795315    -1.51240941     0.84193813
     18      H     5.11982811    -0.73160868    -1.03688386
     19      H     5.30482789    -1.15847755     0.68765512
     20      H     4.82911468     0.49691337     0.21185935

Total System Charge              0.00000

 *** GO1_GOStep23 ***

 Energy gradients wrt nuclear displacements
 ==========================================

     Atom      Cartesian (a.u./angstrom)
                 X         Y         Z
 ----------------------------------------
     1 C    -0.000211 -0.000030 -0.000689
     2 N     0.000015  0.000330  0.000096
     3 C     0.000407 -0.000242  0.000068
     4 O    -0.000204 -0.000134  0.000147
     5 C    -0.000424 -0.000369  0.000073
     6 O     0.001052  0.000524  0.000338
     7 N    -0.000253 -0.000248 -0.000064
     8 C    -0.000046  0.000191 -0.000105
     9 O    -0.000091 -0.000183  0.000115
    10 N    -0.000232  0.000290 -0.000019
    11 C     0.000168 -0.000150  0.000087
    12 H    -0.000127  0.000374 -0.000261
    13 H    -0.000052 -0.000120  0.000118
    14 H    -0.000103  0.000226  0.000101
    15 H     0.000011 -0.000050 -0.000124
    16 H     0.000098 -0.000144 -0.000133
    17 H     0.000030 -0.000052  0.000008
    18 H     0.000097 -0.000100  0.000106
    19 H    -0.000084  0.000048  0.000109
    20 H    -0.000052 -0.000162  0.000029
 ----------------------------------------

 dE(predicted):    -0.14602E-04, dE(actual):    -0.13467E-04, Trust radius:    0.080000, all in a.u.
 
----------------------------------------------------------------------
Geometry Convergence after Step  23       (Hartree/Angstrom,Angstrom)
----------------------------------------------------------------------
current energy                               -4.25359935 Hartree
energy change                      -0.00001347     0.00020000    T
constrained gradient max            0.00100818     0.00010000    F
constrained gradient rms            0.00024324     0.00006667    F
gradient max                        0.00100818
gradient rms                        0.00024324
cart. step max                      0.03395216     0.01000000    F
cart. step rms                      0.00965821     0.00666667    F
 

--------
Geometry
--------
Formula: C5H9N3O3
Atoms
[...]
                                    1.12%     1 P:y            -5.239  0.67     1 C
       1.137  0.00    51 A         19.25%     2 S               2.394  0.00    20 H
                                  -19.14%     2 P:y             4.589  0.00     5 C
                                   16.30%     1 S              -6.532  1.00    12 H
                                   16.29%     1 S              -6.532  1.00    20 H
                                   12.22%     1 S              -6.532  1.00    19 H
                                  -10.10%     2 P:x             4.589  0.00     1 C
                                    8.27%     1 S              -6.532  1.00    14 H
                                    7.25%     1 S              -6.532  1.00    17 H
                                    6.68%     2 S               2.394  0.00    14 H
                                    5.52%     2 S               2.394  0.00    18 H
                                   -4.78%     2 P:z             4.589  0.00     1 C
                                    4.56%     1 S              -6.532  1.00    18 H
                                    3.60%     2 S               2.394  0.00    12 H
                                    3.43%     2 S               2.394  0.00    19 H
                                    3.30%     1 S              -6.532  1.00    13 H
                                    2.37%     1 S              -6.532  1.00    15 H
                                    2.15%     1 P:x            -5.239  0.67     1 C
                                    1.78%     1 P:z            -7.062  1.00     7 N
                                    1.69%     2 S               2.394  0.00    13 H
                                    1.56%     1 P:z            -5.239  0.67     1 C
                                    1.50%     1 P:y            -5.239  0.67     5 C
                                    1.45%     1 P:x            -5.239  0.67     5 C
                                    1.44%     3 S              40.869  0.00    19 H
                                    1.31%     3 S              40.869  0.00    12 H
                                    1.08%     1 P:z            -7.062  1.00     8 N
       1.253  0.00    52 A         19.06%     1 S              -6.532  1.00    19 H
                                  -18.91%     2 P:y             4.589  0.00     5 C
                                   18.33%     2 S               2.394  0.00    19 H
                                   15.58%     1 S              -6.532  1.00    12 H
                                   14.63%     1 S              -6.532  1.00    20 H
                                   11.16%     2 S               2.394  0.00    20 H
                                  -10.82%     2 P:x             4.589  0.00     1 C
                                    7.37%     1 S              -6.532  1.00    13 H
                                    5.92%     1 S              -6.532  1.00    17 H
                                    4.85%     2 S               2.394  0.00    13 H
                                    4.80%     1 P:y            -5.239  0.67     5 C
                                    3.63%     2 S               2.394  0.00    12 H
                                    2.95%     1 P:x            -5.239  0.67     1 C
                                   -2.72%     2 P:z             4.589  0.00     1 C
                                    2.62%     1 S              -6.532  1.00    14 H
                                    1.89%     2 S               2.394  0.00    18 H
                                   -1.74%     2 P:z             7.649  0.00     8 N
                                    1.55%     2 P:y             4.589  0.00     4 C
                                    1.48%     1 S              -6.532  1.00    16 H
                                    1.46%     3 S              40.869  0.00    19 H
                                    1.38%     3 S              40.869  0.00    20 H
                                    1.36%     2 S               2.394  0.00    14 H
                                    1.33%     3 S              40.869  0.00    12 H
                                    1.18%     2 S               2.394  0.00    17 H
                                    1.02%     2 P:y             7.649  0.00     8 N

 Energy gradients wrt nuclear displacements
 ==========================================

     Atom      Cartesian (a.u./angstrom)
                 X         Y         Z
 ----------------------------------------
     1 C    -0.000047  0.000079  0.000010
     2 N    -0.000057  0.000063 -0.000029
     3 C     0.000036  0.000053 -0.000016
     4 O    -0.000025  0.000086 -0.000028
     5 C    -0.000030 -0.000021 -0.000020
     6 O     0.000108  0.000001 -0.000025
     7 N    -0.000033 -0.000029  0.000007
     8 C     0.000061 -0.000047  0.000004
     9 O     0.000062 -0.000101  0.000014
    10 N    -0.000015 -0.000037  0.000002
    11 C     0.000037 -0.000048  0.000094
    12 H    -0.000077  0.000104 -0.000013
    13 H    -0.000044  0.000121 -0.000021
    14 H    -0.000077  0.000093  0.000016
    15 H    -0.000011  0.000036 -0.000005
    16 H     0.000036  0.000013 -0.000044
    17 H    -0.000016 -0.000028  0.000002
    18 H     0.000075 -0.000100 -0.000033
    19 H     0.000015 -0.000108  0.000072
    20 H     0.000001 -0.000129  0.000013
 ----------------------------------------



 =======================================================================
 Electrostatic potential at the Nuclei due to electrons and other nuclei
 =======================================================================
  
         Atom                  Potential
         ----                  ---------
     1)   C                  14.73814916
     2)   N                  18.37007298
     3)   C                  14.67021660
     4)   O                  22.42019853
     5)   C                  14.67852048
     6)   O                  22.24611397
     7)   N                  18.37116220
     8)   C                  14.67197789
     9)   O                  22.43607082
    10)   N                  18.37753893
    11)   C                  14.74705351
    12)   H                   1.08613139
    13)   H                   1.09430916
    14)   H                   1.09449582
    15)   H                   1.00317670
    16)   H                   1.04744562
    17)   H                   1.00835403
    18)   H                   1.10097037
    19)   H                   1.09848013
    20)   H                   1.10359122
 Mulliken charges used for AMS results%charges...


    =====================
     CALCULATION RESULTS
    =====================

Energy (hartree)            -4.25369152

Gradients (hartree/bohr)
  Index   Atom            d/dx            d/dy            d/dz
      1      C   -0.0000246128    0.0000416266    0.0000054423
      2      N   -0.0000300702    0.0000331351   -0.0000155548
      3      C    0.0000190564    0.0000280286   -0.0000085640
      4      O   -0.0000130445    0.0000455480   -0.0000148287
      5      C   -0.0000156506   -0.0000109572   -0.0000104579
      6      O    0.0000569812    0.0000003405   -0.0000132110
      7      N   -0.0000175282   -0.0000156008    0.0000034990
      8      C    0.0000321594   -0.0000250416    0.0000023714
      9      O    0.0000329147   -0.0000535576    0.0000075718
     10      N   -0.0000081287   -0.0000193644    0.0000009591
     11      C    0.0000198289   -0.0000254750    0.0000496168
     12      H   -0.0000409171    0.0000551565   -0.0000069776
     13      H   -0.0000234913    0.0000638165   -0.0000112497
     14      H   -0.0000405709    0.0000492175    0.0000086414
     15      H   -0.0000056998    0.0000192506   -0.0000024307
     16      H    0.0000191492    0.0000067075   -0.0000234240
     17      H   -0.0000086636   -0.0000147197    0.0000008777
     18      H    0.0000396578   -0.0000529385   -0.0000172009
     19      H    0.0000080174   -0.0000571603    0.0000378668
     20      H    0.0000006126   -0.0000680122    0.0000070530


--------------
Atomic charges
--------------
  Index   Atom    Charge
      1      C    0.7884
      2      N   -0.1321
      3      C    0.5370
      4      O   -0.5687
      5      C    0.4648
      6      O   -0.2510
      7      N   -0.2145
      8      C    0.6336
      9      O   -0.5945
     10      N   -0.1413
     11      C    0.7467
     12      H   -0.2334
     13      H   -0.1733
     14      H   -0.1741
     15      H    0.0204
     16      H   -0.1333
     17      H   -0.0414
     18      H   -0.1618
     19      H   -0.1929
     20      H   -0.1786


Dipole moment vector    (Debye):     1.90028071   -1.57156939    4.07678738
              magnitude (Debye):     4.76456634


-----------------------
Molecular orbitals info
-----------------------
n orbitals:              385
n spin:                    1

Note: only printing virtual orbitals with
      energy smaller than HOMO + 100. eV

HOMO (eV):              -5.9373
LUMO (eV):              -4.0394
HOMO-LUMO gap (eV):      1.8979

   Index   Energy (eV)    Occupation
     243       94.0069         0.000       
     242       93.9247         0.000       
     241       93.8275         0.000       
     240       93.6790         0.000       
     239       93.4348         0.000       
     238       92.9625         0.000       
     237       92.4617         0.000       
     236       92.2754         0.000       
     235       91.6069         0.000       
     234       90.6504         0.000       
     233       90.2156         0.000       
     232       90.0382         0.000       
     231       89.7684         0.000       
     230       88.8821         0.000       
     229       87.9882         0.000       
     228       85.9827         0.000       
     227       85.6959         0.000       
     226       85.2380         0.000       
     225       84.4842         0.000       
     224       83.3075         0.000       
     223       82.4341         0.000       
     222       82.2710         0.000       
     221       81.2506         0.000       
     220       81.1694         0.000       
     219       79.9823         0.000       
     218       78.8124         0.000       
     217       78.5598         0.000       
     216       77.8827         0.000       
     215       77.5864         0.000       
     214       77.4073         0.000       
     213       77.1511         0.000       
     212       76.7759         0.000       
     211       76.4315         0.000       
     210       75.9864         0.000       
     209       75.6748         0.000       
     208       75.6243         0.000       
     207       75.4423         0.000       
     206       74.8767         0.000       
     205       74.2598         0.000       
     204       73.8939         0.000       
     203       72.0523         0.000       
     202       70.9410         0.000       
     201       70.8563         0.000       
     200       70.4397         0.000       
     199       69.7255         0.000       
     198       68.1884         0.000       
     197       67.4592         0.000       
     196       65.5420         0.000       
     195       64.4480         0.000       
     194       64.3339         0.000       
     193       63.6292         0.000       
     192       63.1048         0.000       
     191       61.5985         0.000       
     190       61.3494         0.000       
     189       61.0212         0.000       
     188       60.8453         0.000       
     187       60.7920         0.000       
     186       60.1356         0.000       
     185       59.2883         0.000       
     184       58.2625         0.000       
     183       57.4968         0.000       
     182       57.1359         0.000       
     181       56.3280         0.000       
     180       55.8236         0.000       
     179       55.3860         0.000       
     178       54.6062         0.000       
     177       54.1328         0.000       
     176       53.6606         0.000       
     175       52.8411         0.000       
     174       52.5961         0.000       
     173       51.8103         0.000       
     172       51.4358         0.000       
     171       50.6619         0.000       
     170       50.1343         0.000       
     169       49.9866         0.000       
     168       49.0456         0.000       
     167       48.7328         0.000       
     166       48.4975         0.000       
     165       47.2413         0.000       
     164       46.7031         0.000       
     163       46.2014         0.000       
     162       45.7331         0.000       
     161       45.0352         0.000       
     160       44.1125         0.000       
     159       43.8514         0.000       
     158       43.4104         0.000       
     157       42.7914         0.000       
     156       42.4834         0.000       
     155       42.3202         0.000       
     154       41.9041         0.000       
     153       41.7482         0.000       
     152       40.8281         0.000       
     151       39.7478         0.000       
     150       39.1085         0.000       
     149       38.3754         0.000       
     148       38.2772         0.000       
     147       37.7080         0.000       
     146       37.4108         0.000       
     145       36.8289         0.000       
     144       36.4804         0.000       
     143       35.4571         0.000       
     142       35.0485         0.000       
     141       34.9653         0.000       
     140       34.9230         0.000       
     139       34.0847         0.000       
     138       33.7122         0.000       
     137       33.6334         0.000       
     136       33.3472         0.000       
     135       32.3082         0.000       
     134       32.0670         0.000       
     133       31.3769         0.000       
     132       30.9817         0.000       
     131       30.7244         0.000       
     130       29.8121         0.000       
     129       29.2435         0.000       
     128       28.8643         0.000       
     127       28.5481         0.000       
     126       28.0665         0.000       
     125       27.8059         0.000       
     124       27.1894         0.000       
     123       27.0735         0.000       
     122       26.8966         0.000       
     121       26.0505         0.000       
     120       25.9887         0.000       
     119       25.1964         0.000       
     118       25.1343         0.000       
     117       24.8763         0.000       
     116       24.5594         0.000       
     115       23.9115         0.000       
     114       23.7495         0.000       
     113       23.4699         0.000       
     112       22.2737         0.000       
     111       22.0901         0.000       
     110       21.5028         0.000       
     109       21.0757         0.000       
     108       20.8908         0.000       
     107       19.9641         0.000       
     106       19.0755         0.000       
     105       19.0478         0.000       
     104       18.6038         0.000       
     103       18.5770         0.000       
     102       18.2144         0.000       
     101       16.9562         0.000       
     100       16.2938         0.000       
      99       15.8432         0.000       
      98       15.3782         0.000       
      97       14.9856         0.000       
      96       14.6385         0.000       
      95       13.9269         0.000       
      94       13.5201         0.000       
      93       13.0794         0.000       
      92       13.0175         0.000       
      91       12.5551         0.000       
      90       12.3869         0.000       
      89       11.7750         0.000       
      88       11.4498         0.000       
      87       10.7735         0.000       
      86       10.5388         0.000       
      85       10.4927         0.000       
      84       10.3496         0.000       
      83       10.1234         0.000       
      82        9.9931         0.000       
      81        9.4759         0.000       
      80        9.1032         0.000       
      79        8.7223         0.000       
      78        8.5384         0.000       
      77        8.2206         0.000       
      76        8.1995         0.000       
      75        7.9451         0.000       
      74        7.3045         0.000       
      73        7.1859         0.000       
      72        6.8631         0.000       
      71        6.8221         0.000       
      70        6.5076         0.000       
      69        6.2984         0.000       
      68        6.1126         0.000       
      67        5.4562         0.000       
      66        5.1866         0.000       
      65        4.9031         0.000       
      64        4.5891         0.000       
      63        4.4741         0.000       
      62        4.2464         0.000       
      61        3.9523         0.000       
      60        3.8112         0.000       
      59        3.4254         0.000       
      58        3.0892         0.000       
      57        2.7760         0.000       
      56        2.5721         0.000       
      55        1.7849         0.000       
      54        1.5626         0.000       
      53        1.4272         0.000       
      52        1.2532         0.000       
      51        1.1370         0.000       
      50        0.8203         0.000       
      49        0.4232         0.000       
      48        0.2949         0.000       
      47        0.2142         0.000       
      46        0.0534         0.000       
      45       -0.1768         0.000       
      44       -0.7656         0.000       
      43       -4.0394         0.000 < LUMO
      42       -5.9373         2.000 < HOMO
      41       -6.0459         2.000       
      40       -6.3244         2.000       
      39       -6.3786         2.000       
      38       -6.5573         2.000       
      37       -7.8876         2.000       
      36       -9.3978         2.000       
      35       -9.6383         2.000       
      34       -9.7903         2.000       
      33       -9.9874         2.000       
      32      -10.1977         2.000       
      31      -10.5945         2.000       
      30      -11.0755         2.000       
      29      -11.1820         2.000       
      28      -11.3553         2.000       
      27      -11.5804         2.000       
      26      -12.0725         2.000       
      25      -12.5649         2.000       
      24      -13.3777         2.000       
      23      -14.1701         2.000       
      22      -14.6517         2.000       
      21      -15.2753         2.000       
      20      -16.5712         2.000       
      19      -17.9169         2.000       
      18      -18.5792         2.000       
      17      -21.7960         2.000       
      16      -23.1169         2.000       
      15      -23.2736         2.000       
      14      -25.8215         2.000       
      13      -26.0325         2.000       
      12      -29.7623         2.000       
      11     -271.0150         2.000       
      10     -271.2584         2.000       
       9     -273.0760         2.000       
       8     -273.1502         2.000       
       7     -273.2018         2.000       
       6     -382.4898         2.000       
       5     -382.7490         2.000       
       4     -383.1752         2.000       
       3     -510.5011         2.000       
       2     -510.9511         2.000       
       1     -515.6743         2.000       

AMS application finished. Exiting.
NORMAL TERMINATION
     Total cpu time:    2500.69
  Total system time:       9.00
 Total elapsed time:    2523.54
NORMAL TERMINATION
