
 *******************************************************************************
 *                                                                             *
 *  --------------------------------                                           *
 *   Amsterdam Modeling Suite (AMS)              2026.103                      *
 *  --------------------------------                                           *
 *                                               r260501 2026-05-01 873454b5   *
 *                                                                             *
 *                                                                             *
 *                              =================                              *
 *                              |               |                              *
 *                              |     A M S     |                              *
 *                              |               |                              *
 *                              =================                              *
 *                                                                             *
 *                                                                             *
 *   Online information and documentation:  https://www.scm.com/support/       *
 *   E-mail:  support@scm.com   info@scm.com                                   *
 *                                                                             *
 *   Scientific publications using AMS results must be properly referenced     *
 *   See the User Manuals (or the web site) for recommended citations          *
 *   The terms and conditions of the End User License Agreement apply to       *
 *   the use of AMS, https://www.scm.com/license-terms/                        *
 *                                                                             *
 **********************  x86_64_linux_intel / intelmpi  ************************
 
 Licensed to: Jong-June Jeon / University of Seoul 2026-05-13 16:10:32
 SCM User ID: u30731
  
 AMS 2026.103  RunTime: May30-2026 12:43:43  ShM Nodes: 1  Procs: 1

 AMS jobname: c1_fragA_ts
 AMS jobid  : 193498887

 Start   directory: /gpfs/home1/yeseo1ee/projects/eda-asm-prediction/adf_outputs/batch_001/dipolar_001916/
 Results directory: /gpfs/home1/yeseo1ee/projects/eda-asm-prediction/adf_outputs/batch_001/dipolar_001916/c1_fragA_ts.results/
 Scratch directory: /tmp/amstmp_c1_fragA_ts_kid0.193498887/

 RNG seed: 505435491 -464849620 1859590445 834880704 -289217636 -32584993 681487760 695145477



                      ************************************************************************
                      *  ADF 2026.103  RunTime: May30-2026 12:43:43  ShM Nodes: 1  Procs: 1  *
                      ************************************************************************
  

       ****************************
       * SINGLE POINT CALCULATION *
       ****************************

--------
Geometry
--------
Formula: C6H4N2O4
Atoms
  Index Symbol   x (angstrom)   y (angstrom)   z (angstrom)
      1      C    -3.03499000     2.97345000     1.64649000
      2      O    -1.80569000     2.33006000     1.26464000
      3      C    -1.51734000     2.28465000    -0.02203000
      4      O    -2.12954000     2.81504000    -0.91640000
      5      C    -0.25227000     1.48097000    -0.23862000
      6      N     0.17496000     1.25670000    -1.52124000
      7      C     1.50066000     0.89954000    -1.41172000
      8      C     2.28881000     0.39334000    -2.46204000
      9      N     2.94588000    -0.05955000    -3.31065000
     10      C     1.99344000     1.45791000    -0.16983000
     11      O     3.08974000     1.55230000     0.32347000
     12      O     0.84252000     1.91356000     0.47902000
     13      H    -3.01245000     4.03310000     1.35773000
     14      H    -3.88077000     2.46806000     1.16005000
     15      H    -3.09850000     2.87003000     2.73482000
     16      H    -0.45135000     0.87132000    -2.22887000

Total System Charge              0.00000


----------------
ADF Engine Input
----------------
 
   Basis
     Type TZ2P
     Core None
   End
   XC
     GGA BLYP
     Dispersion GRIMME3 BJDAMP
   End
   Symmetry NOSYM
   NumericalQuality Normal
   Unrestricted No
   SCF
     Iterations 200
     Converge 1.0e-6
   End
   Save TAPE21
 

 Title: *** (NO TITLE) ***

 *** adf ***



 ===========================
 A T T A C H E D   F I L E S
 ===========================
  



 ===============================
 M O D E L   P A R A M E T E R S
 ===============================
  
 DENSITY FUNCTIONAL POTENTIAL (scf)
    LDA:                               Exchange only                           == Not Default ==
    Gradient Corrections:              Becke88 LYP                             == Not Default ==

 SPIN  (restricted / unrestr.)
    Molecule:                          Restricted                               
    Fragments:                         Restricted                               

 OTHER ASPECTS
    Relativistic Corrections:          scalar (ZORA,MAPA)                       

    Nuclear Charge Density Model:      Point Charge Nuclei                      
    Core Treatment:                    Frozen Orbital(s)                        

    Hyperfine or Zeeman Interaction:   ---                                      

 Settings for Grimme D3 dispersion correction

      damping                        BJ
      s6                          1.000
      s8                          2.700
      a1                          0.430
      a2                          4.236

 Other (technical) parameters

      alpha                      14.000
      version                         4
 


 Fragment File(s)
 ----------------
 C:
         file : /gpfs/home1/yeseo1ee/projects/eda-asm-prediction/adf_outputs/batch_001/dipolar_001916/c1_fragA_ts.results/t21.50BA88D5.C
         jobid: 0
         title: Carbon (TZ2P)
 O:
         file : /gpfs/home1/yeseo1ee/projects/eda-asm-prediction/adf_outputs/batch_001/dipolar_001916/c1_fragA_ts.results/t21.6E90ABAE.O
         jobid: 0
         title: Oxygen (TZ2P)
 N:
         file : /gpfs/home1/yeseo1ee/projects/eda-asm-prediction/adf_outputs/batch_001/dipolar_001916/c1_fragA_ts.results/t21.44EAA48D.N
         jobid: 0
         title: Nitrogen (TZ2P)
 H:
         file : /gpfs/home1/yeseo1ee/projects/eda-asm-prediction/adf_outputs/batch_001/dipolar_001916/c1_fragA_ts.results/t21.6F35CCAB.H
         jobid: 0
         title: Hydrogen (TZ2P)



 ===============
 G E O M E T R Y  ***  3D  Molecule  ***
 ===============
  

 ATOMS
 =====                            X Y Z                    CHARGE
                                (Angstrom)             Nucl     +Core       At.Mass
                       --------------------------    ----------------       -------
    1  C              -3.0350    2.9735    1.6465      6.00      6.00       12.0000
    2  O              -1.8057    2.3301    1.2646      8.00      8.00       15.9949
    3  C              -1.5173    2.2847   -0.0220      6.00      6.00       12.0000
    4  O              -2.1295    2.8150   -0.9164      8.00      8.00       15.9949
    5  C              -0.2523    1.4810   -0.2386      6.00      6.00       12.0000
    6  N               0.1750    1.2567   -1.5212      7.00      7.00       14.0031
    7  C               1.5007    0.8995   -1.4117      6.00      6.00       12.0000
    8  C               2.2888    0.3933   -2.4620      6.00      6.00       12.0000
    9  N               2.9459   -0.0595   -3.3106      7.00      7.00       14.0031
   10  C               1.9934    1.4579   -0.1698      6.00      6.00       12.0000
   11  O               3.0897    1.5523    0.3235      8.00      8.00       15.9949
   12  O               0.8425    1.9136    0.4790      8.00      8.00       15.9949
   13  H              -3.0124    4.0331    1.3577      1.00      1.00        1.0078
   14  H              -3.8808    2.4681    1.1600      1.00      1.00        1.0078
   15  H              -3.0985    2.8700    2.7348      1.00      1.00        1.0078
   16  H              -0.4513    0.8713   -2.2289      1.00      1.00        1.0078


 FRAGMENTS
 =========                                     Atoms in this Fragment     Cart. coord.s (Angstrom)
                                               -------------------------------------------------------
    1  C                                                 1  C           -3.0350    2.9735    1.6465
    2  C                                                 3  C           -1.5173    2.2847   -0.0220
    3  C                                                 5  C           -0.2523    1.4810   -0.2386
    4  C                                                 7  C            1.5007    0.8995   -1.4117
    5  C                                                 8  C            2.2888    0.3933   -2.4620
    6  C                                                10  C            1.9934    1.4579   -0.1698
    7  O                                                 2  O           -1.8057    2.3301    1.2646
    8  O                                                 4  O           -2.1295    2.8150   -0.9164
    9  O                                                11  O            3.0897    1.5523    0.3235
   10  O                                                12  O            0.8425    1.9136    0.4790
   11  N                                                 6  N            0.1750    1.2567   -1.5212
   12  N                                                 9  N            2.9459   -0.0595   -3.3106
   13  H                                                13  H           -3.0124    4.0331    1.3577
   14  H                                                14  H           -3.8808    2.4681    1.1600
   15  H                                                15  H           -3.0985    2.8700    2.7348
   16  H                                                16  H           -0.4513    0.8713   -2.2289


 Interatomic Distance Matrix (Angstrom)
 --------------------------------------

   1)     0.000
   2)     1.439   0.000
   3)     2.358   1.319   0.000
   4)     2.723   2.258   1.207   0.000
   5)     3.678   2.322   1.514   2.401   0.000
   6)     4.826   3.583   2.484   2.847   1.370   0.000
   7)     5.850   4.488   3.600   4.134   2.188   1.377   0.000
   8)     7.203   5.865   4.901   5.270   3.547   2.470   1.407   0.000
   9)     8.339   7.016   6.019   6.305   4.695   3.551   2.572   1.165   0.000
  10)     5.557   4.154   3.610   4.404   2.247   2.275   1.448   2.545   3.616   0.000
  11)     6.425   5.045   4.678   5.511   3.390   3.462   2.442   3.121   3.978   1.206
          0.000
  12)     4.186   2.794   2.441   3.405   1.379   2.209   2.244   3.613   4.762   1.398
          2.281   0.000
  13)     1.099   2.089   2.683   2.727   4.084   5.114   6.153   7.479   8.605   5.833
          6.668   4.486   0.000
  14)     1.099   2.082   2.649   2.738   4.012   5.011   6.167   7.449   8.543   6.107
          7.080   4.804   1.801   0.000
  15)     1.095   2.031   3.232   3.778   4.344   5.606   6.498   7.884   9.037   6.030
          6.771   4.641   1.805   1.804   0.000
  16)     5.110   4.021   2.829   2.884   2.091   1.021   2.116   2.791   3.685   3.250
          4.418   3.177   5.424   5.079   5.970   0.000

 Min. Distance =    1.0205
 Max. Distance =    9.0369



 =====================================
 S Y M M E T R Y ,   E L E C T R O N S
 =====================================
  
 Symmetry: NOSYM

 Irreducible Representations, including subspecies
 -------------------------------------------------
 A


 Configuration of Valence Electrons
 ==================================
 ( determined in the SCF procedure )

 Total:   86

 Net Charge: 0 (Nuclei minus Electrons)

 Aufbau principle for MO occupations will be applied through SCF cycle no.     100
 Thereafter, the program will assign electrons to MOs that are spatially
 similar to the occupied MOs in a "reference" cycle ("KeepOrbitals").
 The reference cycle is always the PREVIOUS cycle: it will evolve with
 the SCF procedure.
 ***************************************************************************************************



                                      ****************************************
                                      *  B U I L D : (Fragments, Functions)  *
                                      ****************************************
  



 =======
 S F O s  ***  (Symmetrized Fragment Orbitals)  ***
 =======
  
 SFOs are linear combinations of (valence) Fragment Orbitals (FOs), such that the SFOs transform as the
 irreducible representations of the (molecular) symmetry group. Each SFO is therefore characterized by
 an irrep of the molecule and by a few (or only one) generating FOs.
 The SFOs constitute a symmetry-adapted basis for the Fock matrix. The MO eigenvector coefficients in
 this basis provide a direct interpretation of the MOs in terms of Frontier Orbital Theory.

 The SFOs are combined with auxiliary Core Functions (CFs) to ensure orthogonalization on the (frozen)
 Core Orbitals (COs). The Core-orthogonalized SFOs (CSFOs) constitute the true Fock basis.

 The FOs, and hence also the (C)SFOs are combinations of the elementary basis functions (BAS). The basis
 functions that participate in the description of the SFOs depend on the irrep. The indices of the
 involved functions are printed below for each irrep.
 (The complete list of primitive basis functions is printed in another section)

 Total nr. of (C)SFOs (summation over all irreps) :   356

 NOTE: a (C)SFO that is defined as a combination of more than one FO is usually NOT normalized.



                                       === A ===
 Nr. of SFOs :  356
 Cartesian basis functions that participate in this irrep (total number =   408) :
      1     2     3     4     5     6     9    12     7    10
     13     8    11    14    15    16    17    18    19    20
     21    22    23    24    25    26    27    28    29    30
     31    32    33    34    35    36    39    42    37    40
     43    38    41    44    45    46    47    48    49    50
     51    52    53    54    55    56    57    58    59    60
     61    62    63    64    65    66    69    72    67    70
     73    68    71    74    75    76    77    78    79    80
     81    82    83    84    85    86    87    88    89    90
     91    92    93    94    95    96    99   102    97   100
    103    98   101   104   105   106   107   108   109   110
    111   112   113   114   115   116   117   118   119   120
    121   122   123   124   125   126   129   132   127   130
    133   128   131   134   135   136   137   138   139   140
    141   142   143   144   145   146   147   148   149   150
    151   152   153   154   155   156   159   162   157   160
    163   158   161   164   165   166   167   168   169   170
    171   172   173   174   175   176   177   178   179   180
    181   182   183   184   185   186   189   192   187   190
    193   188   191   194   195   196   197   198   199   200
    201   202   203   204   205   206   207   208   209   210
    211   212   213   214   215   216   219   222   217   220
    223   218   221   224   225   226   227   228   229   230
    231   232   233   234   235   236   237   238   239   240
    241   242   243   244   245   246   249   252   247   250
    253   248   251   254   255   256   257   258   259   260
    261   262   263   264   265   266   267   268   269   270
    271   272   273   274   275   276   279   282   277   280
    283   278   281   284   285   286   287   288   289   290
    291   292   293   294   295   296   297   298   299   300
    301   302   303   304   305   306   309   312   307   310
    313   308   311   314   315   316   317   318   319   320
    321   322   323   324   325   326   327   328   329   330
    331   332   333   334   335   336   339   342   337   340
    343   338   341   344   345   346   347   348   349   350
    351   352   353   354   355   356   357   358   359   360
    361   362   363   364   365   366   367   368   369   370
    371   372   373   374   375   376   377   378   379   380
    381   382   383   384   385   386   387   388   389   390
    391   392   393   394   395   396   397   398   399   400
    401   402   403   404   405   406   407   408

    SFO  (index         Fragment          Generating    Expansion in Fragment Orbitals
  indx  incl.CFs)   Occup   Orb.Energy   FragmentType  Coeff.   Orbital     on Fragment
 --------------------------------------------------------------------------------------
     1       1      2.000     -10.066 au  C             1.00      1 S               1
                        (    -273.921 eV)
     2       2      2.000      -0.501 au  C             1.00      2 S               1
                        (     -13.620 eV)
     3       3       --         0.373 au  C             1.00      3 S               1
                        (      10.158 eV)
     4       4       --         5.405 au  C             1.00      4 S               1
                        (     147.073 eV)
     5       5       --        49.848 au  C             1.00      5 S               1
                        (    1356.422 eV)
     6       6      0.667      -0.193 au  C             1.00      1 P:x             1
                        (      -5.239 eV)
     7       7       --         0.169 au  C             1.00      2 P:x             1
                        (       4.589 eV)
     8       8       --         2.013 au  C             1.00      3 P:x             1
                        (      54.789 eV)
     9       9      0.667      -0.193 au  C             1.00      1 P:y             1
                        (      -5.239 eV)
    10      10       --         0.169 au  C             1.00      2 P:y             1
                        (       4.589 eV)
    11      11       --         2.013 au  C             1.00      3 P:y             1
                        (      54.789 eV)
    12      12      0.667      -0.193 au  C             1.00      1 P:z             1
                        (      -5.239 eV)
    13      13       --         0.169 au  C             1.00      2 P:z             1
                        (       4.589 eV)
    14      14       --         2.013 au  C             1.00      3 P:z             1
                        (      54.789 eV)
    15      15       --         1.243 au  C             1.00      1 D:z2            1
                        (      33.824 eV)
    16      16       --         1.243 au  C             1.00      1 D:x2-y2         1
                        (      33.824 eV)
    17      17       --         1.243 au  C             1.00      1 D:xy            1
                        (      33.824 eV)
    18      18       --         1.243 au  C             1.00      1 D:xz            1
                        (      33.824 eV)
    19      19       --         1.243 au  C             1.00      1 D:yz            1
                        (      33.824 eV)
    20      20       --         4.016 au  C             1.00      1 F:z3            1
                        (     109.271 eV)
    21      21       --         4.016 au  C             1.00      1 F:z             1
                        (     109.271 eV)
    22      22       --         4.016 au  C             1.00      1 F:xyz           1
                        (     109.271 eV)
    23      23       --         4.016 au  C             1.00      1 F:z2x           1
                        (     109.271 eV)
    24      24       --         4.016 au  C             1.00      1 F:z2y           1
                        (     109.271 eV)
    25      25       --         4.016 au  C             1.00      1 F:x             1
                        (     109.271 eV)
    26      26       --         4.016 au  C             1.00      1 F:y             1
                        (     109.271 eV)
    27      27      2.000     -10.066 au  C             1.00      1 S               2
                        (    -273.921 eV)
    28      28      2.000      -0.501 au  C             1.00      2 S               2
                        (     -13.620 eV)
    29      29       --         0.373 au  C             1.00      3 S               2
                        (      10.158 eV)
    30      30       --         5.405 au  C             1.00      4 S               2
                        (     147.073 eV)
    31      31       --        49.848 au  C             1.00      5 S               2
                        (    1356.422 eV)
    32      32      0.667      -0.193 au  C             1.00      1 P:x             2
                        (      -5.239 eV)
    33      33       --         0.169 au  C             1.00      2 P:x             2
                        (       4.589 eV)
    34      34       --         2.013 au  C             1.00      3 P:x             2
                        (      54.789 eV)
    35      35      0.667      -0.193 au  C             1.00      1 P:y             2
                        (      -5.239 eV)
    36      36       --         0.169 au  C             1.00      2 P:y             2
                        (       4.589 eV)
    37      37       --         2.013 au  C             1.00      3 P:y             2
                        (      54.789 eV)
    38      38      0.667      -0.193 au  C             1.00      1 P:z             2
                        (      -5.239 eV)
    39      39       --         0.169 au  C             1.00      2 P:z             2
                        (       4.589 eV)
    40      40       --         2.013 au  C             1.00      3 P:z             2
                        (      54.789 eV)
    41      41       --         1.243 au  C             1.00      1 D:z2            2
                        (      33.824 eV)
    42      42       --         1.243 au  C             1.00      1 D:x2-y2         2
                        (      33.824 eV)
    43      43       --         1.243 au  C             1.00      1 D:xy            2
                        (      33.824 eV)
    44      44       --         1.243 au  C             1.00      1 D:xz            2
                        (      33.824 eV)
    45      45       --         1.243 au  C             1.00      1 D:yz            2
                        (      33.824 eV)
    46      46       --         4.016 au  C             1.00      1 F:z3            2
                        (     109.271 eV)
    47      47       --         4.016 au  C             1.00      1 F:z             2
                        (     109.271 eV)
    48      48       --         4.016 au  C             1.00      1 F:xyz           2
                        (     109.271 eV)
    49      49       --         4.016 au  C             1.00      1 F:z2x           2
                        (     109.271 eV)
    50      50       --         4.016 au  C             1.00      1 F:z2y           2
                        (     109.271 eV)
    51      51       --         4.016 au  C             1.00      1 F:x             2
                        (     109.271 eV)
    52      52       --         4.016 au  C             1.00      1 F:y             2
                        (     109.271 eV)
    53      53      2.000     -10.066 au  C             1.00      1 S               3
                        (    -273.921 eV)
    54      54      2.000      -0.501 au  C             1.00      2 S               3
                        (     -13.620 eV)
    55      55       --         0.373 au  C             1.00      3 S               3
                        (      10.158 eV)
    56      56       --         5.405 au  C             1.00      4 S               3
                        (     147.073 eV)
    57      57       --        49.848 au  C             1.00      5 S               3
                        (    1356.422 eV)
    58      58      0.667      -0.193 au  C             1.00      1 P:x             3
                        (      -5.239 eV)
    59      59       --         0.169 au  C             1.00      2 P:x             3
                        (       4.589 eV)
    60      60       --         2.013 au  C             1.00      3 P:x             3
                        (      54.789 eV)
    61      61      0.667      -0.193 au  C             1.00      1 P:y             3
                        (      -5.239 eV)
    62      62       --         0.169 au  C             1.00      2 P:y             3
                        (       4.589 eV)
    63      63       --         2.013 au  C             1.00      3 P:y             3
                        (      54.789 eV)
    64      64      0.667      -0.193 au  C             1.00      1 P:z             3
                        (      -5.239 eV)
    65      65       --         0.169 au  C             1.00      2 P:z             3
                        (       4.589 eV)
    66      66       --         2.013 au  C             1.00      3 P:z             3
                        (      54.789 eV)
    67      67       --         1.243 au  C             1.00      1 D:z2            3
                        (      33.824 eV)
    68      68       --         1.243 au  C             1.00      1 D:x2-y2         3
                        (      33.824 eV)
    69      69       --         1.243 au  C             1.00      1 D:xy            3
                        (      33.824 eV)
    70      70       --         1.243 au  C             1.00      1 D:xz            3
                        (      33.824 eV)
    71      71       --         1.243 au  C             1.00      1 D:yz            3
                        (      33.824 eV)
    72      72       --         4.016 au  C             1.00      1 F:z3            3
                        (     109.271 eV)
    73      73       --         4.016 au  C             1.00      1 F:z             3
                        (     109.271 eV)
    74      74       --         4.016 au  C             1.00      1 F:xyz           3
                        (     109.271 eV)
    75      75       --         4.016 au  C             1.00      1 F:z2x           3
                        (     109.271 eV)
    76      76       --         4.016 au  C             1.00      1 F:z2y           3
                        (     109.271 eV)
    77      77       --         4.016 au  C             1.00      1 F:x             3
                        (     109.271 eV)
    78      78       --         4.016 au  C             1.00      1 F:y             3
                        (     109.271 eV)
    79      79      2.000     -10.066 au  C             1.00      1 S               4
                        (    -273.921 eV)
    80      80      2.000      -0.501 au  C             1.00      2 S               4
                        (     -13.620 eV)
    81      81       --         0.373 au  C             1.00      3 S               4
                        (      10.158 eV)
    82      82       --         5.405 au  C             1.00      4 S               4
                        (     147.073 eV)
    83      83       --        49.848 au  C             1.00      5 S               4
                        (    1356.422 eV)
    84      84      0.667      -0.193 au  C             1.00      1 P:x             4
                        (      -5.239 eV)
    85      85       --         0.169 au  C             1.00      2 P:x             4
                        (       4.589 eV)
    86      86       --         2.013 au  C             1.00      3 P:x             4
                        (      54.789 eV)
    87      87      0.667      -0.193 au  C             1.00      1 P:y             4
                        (      -5.239 eV)
    88      88       --         0.169 au  C             1.00      2 P:y             4
                        (       4.589 eV)
    89      89       --         2.013 au  C             1.00      3 P:y             4
                        (      54.789 eV)
    90      90      0.667      -0.193 au  C             1.00      1 P:z             4
                        (      -5.239 eV)
    91      91       --         0.169 au  C             1.00      2 P:z             4
                        (       4.589 eV)
    92      92       --         2.013 au  C             1.00      3 P:z             4
                        (      54.789 eV)
    93      93       --         1.243 au  C             1.00      1 D:z2            4
                        (      33.824 eV)
    94      94       --         1.243 au  C             1.00      1 D:x2-y2         4
                        (      33.824 eV)
    95      95       --         1.243 au  C             1.00      1 D:xy            4
                        (      33.824 eV)
    96      96       --         1.243 au  C             1.00      1 D:xz            4
                        (      33.824 eV)
    97      97       --         1.243 au  C             1.00      1 D:yz            4
                        (      33.824 eV)
    98      98       --         4.016 au  C             1.00      1 F:z3            4
                        (     109.271 eV)
    99      99       --         4.016 au  C             1.00      1 F:z             4
                        (     109.271 eV)
   100     100       --         4.016 au  C             1.00      1 F:xyz           4
                        (     109.271 eV)
   101     101       --         4.016 au  C             1.00      1 F:z2x           4
                        (     109.271 eV)
   102     102       --         4.016 au  C             1.00      1 F:z2y           4
                        (     109.271 eV)
   103     103       --         4.016 au  C             1.00      1 F:x             4
                        (     109.271 eV)
   104     104       --         4.016 au  C             1.00      1 F:y             4
                        (     109.271 eV)
   105     105      2.000     -10.066 au  C             1.00      1 S               5
                        (    -273.921 eV)
   106     106      2.000      -0.501 au  C             1.00      2 S               5
                        (     -13.620 eV)
   107     107       --         0.373 au  C             1.00      3 S               5
                        (      10.158 eV)
   108     108       --         5.405 au  C             1.00      4 S               5
                        (     147.073 eV)
   109     109       --        49.848 au  C             1.00      5 S               5
                        (    1356.422 eV)
   110     110      0.667      -0.193 au  C             1.00      1 P:x             5
                        (      -5.239 eV)
   111     111       --         0.169 au  C             1.00      2 P:x             5
                        (       4.589 eV)
   112     112       --         2.013 au  C             1.00      3 P:x             5
                        (      54.789 eV)
   113     113      0.667      -0.193 au  C             1.00      1 P:y             5
                        (      -5.239 eV)
   114     114       --         0.169 au  C             1.00      2 P:y             5
                        (       4.589 eV)
   115     115       --         2.013 au  C             1.00      3 P:y             5
                        (      54.789 eV)
   116     116      0.667      -0.193 au  C             1.00      1 P:z             5
                        (      -5.239 eV)
   117     117       --         0.169 au  C             1.00      2 P:z             5
                        (       4.589 eV)
   118     118       --         2.013 au  C             1.00      3 P:z             5
                        (      54.789 eV)
   119     119       --         1.243 au  C             1.00      1 D:z2            5
                        (      33.824 eV)
   120     120       --         1.243 au  C             1.00      1 D:x2-y2         5
                        (      33.824 eV)
   121     121       --         1.243 au  C             1.00      1 D:xy            5
                        (      33.824 eV)
   122     122       --         1.243 au  C             1.00      1 D:xz            5
                        (      33.824 eV)
   123     123       --         1.243 au  C             1.00      1 D:yz            5
                        (      33.824 eV)
   124     124       --         4.016 au  C             1.00      1 F:z3            5
                        (     109.271 eV)
   125     125       --         4.016 au  C             1.00      1 F:z             5
                        (     109.271 eV)
   126     126       --         4.016 au  C             1.00      1 F:xyz           5
                        (     109.271 eV)
   127     127       --         4.016 au  C             1.00      1 F:z2x           5
                        (     109.271 eV)
   128     128       --         4.016 au  C             1.00      1 F:z2y           5
                        (     109.271 eV)
   129     129       --         4.016 au  C             1.00      1 F:x             5
                        (     109.271 eV)
   130     130       --         4.016 au  C             1.00      1 F:y             5
                        (     109.271 eV)
   131     131      2.000     -10.066 au  C             1.00      1 S               6
                        (    -273.921 eV)
   132     132      2.000      -0.501 au  C             1.00      2 S               6
                        (     -13.620 eV)
   133     133       --         0.373 au  C             1.00      3 S               6
                        (      10.158 eV)
   134     134       --         5.405 au  C             1.00      4 S               6
                        (     147.073 eV)
   135     135       --        49.848 au  C             1.00      5 S               6
                        (    1356.422 eV)
   136     136      0.667      -0.193 au  C             1.00      1 P:x             6
                        (      -5.239 eV)
   137     137       --         0.169 au  C             1.00      2 P:x             6
                        (       4.589 eV)
   138     138       --         2.013 au  C             1.00      3 P:x             6
                        (      54.789 eV)
   139     139      0.667      -0.193 au  C             1.00      1 P:y             6
                        (      -5.239 eV)
   140     140       --         0.169 au  C             1.00      2 P:y             6
                        (       4.589 eV)
   141     141       --         2.013 au  C             1.00      3 P:y             6
                        (      54.789 eV)
   142     142      0.667      -0.193 au  C             1.00      1 P:z             6
                        (      -5.239 eV)
   143     143       --         0.169 au  C             1.00      2 P:z             6
                        (       4.589 eV)
   144     144       --         2.013 au  C             1.00      3 P:z             6
                        (      54.789 eV)
   145     145       --         1.243 au  C             1.00      1 D:z2            6
                        (      33.824 eV)
   146     146       --         1.243 au  C             1.00      1 D:x2-y2         6
                        (      33.824 eV)
   147     147       --         1.243 au  C             1.00      1 D:xy            6
                        (      33.824 eV)
   148     148       --         1.243 au  C             1.00      1 D:xz            6
                        (      33.824 eV)
   149     149       --         1.243 au  C             1.00      1 D:yz            6
                        (      33.824 eV)
   150     150       --         4.016 au  C             1.00      1 F:z3            6
                        (     109.271 eV)
   151     151       --         4.016 au  C             1.00      1 F:z             6
                        (     109.271 eV)
   152     152       --         4.016 au  C             1.00      1 F:xyz           6
                        (     109.271 eV)
   153     153       --         4.016 au  C             1.00      1 F:z2x           6
                        (     109.271 eV)
   154     154       --         4.016 au  C             1.00      1 F:z2y           6
                        (     109.271 eV)
   155     155       --         4.016 au  C             1.00      1 F:x             6
                        (     109.271 eV)
   156     156       --         4.016 au  C             1.00      1 F:y             6
                        (     109.271 eV)
   157     157      2.000     -18.941 au  O             1.00      1 S               7
                        (    -515.403 eV)
   158     158      2.000      -0.876 au  O             1.00      2 S               7
                        (     -23.838 eV)
   159     159       --         0.791 au  O             1.00      3 S               7
                        (      21.524 eV)
   160     160       --        13.422 au  O             1.00      4 S               7
                        (     365.226 eV)
   161     161       --       121.561 au  O             1.00      5 S               7
                        (    3307.838 eV)
   162     162      1.333      -0.331 au  O             1.00      1 P:x             7
                        (      -9.020 eV)
   163     163       --         0.347 au  O             1.00      2 P:x             7
                        (       9.437 eV)
   164     164       --         3.820 au  O             1.00      3 P:x             7
                        (     103.939 eV)
   165     165      1.333      -0.331 au  O             1.00      1 P:y             7
                        (      -9.020 eV)
   166     166       --         0.347 au  O             1.00      2 P:y             7
                        (       9.437 eV)
   167     167       --         3.820 au  O             1.00      3 P:y             7
                        (     103.939 eV)
   168     168      1.333      -0.331 au  O             1.00      1 P:z             7
                        (      -9.020 eV)
   169     169       --         0.347 au  O             1.00      2 P:z             7
                        (       9.437 eV)
   170     170       --         3.820 au  O             1.00      3 P:z             7
                        (     103.939 eV)
   171     171       --         1.071 au  O             1.00      1 D:z2            7
                        (      29.134 eV)
   172     172       --         1.071 au  O             1.00      1 D:x2-y2         7
                        (      29.134 eV)
   173     173       --         1.071 au  O             1.00      1 D:xy            7
                        (      29.134 eV)
   174     174       --         1.071 au  O             1.00      1 D:xz            7
                        (      29.134 eV)
   175     175       --         1.071 au  O             1.00      1 D:yz            7
                        (      29.134 eV)
   176     176       --         3.359 au  O             1.00      1 F:z3            7
                        (      91.410 eV)
   177     177       --         3.359 au  O             1.00      1 F:z             7
                        (      91.410 eV)
   178     178       --         3.359 au  O             1.00      1 F:xyz           7
                        (      91.410 eV)
   179     179       --         3.359 au  O             1.00      1 F:z2x           7
                        (      91.410 eV)
   180     180       --         3.359 au  O             1.00      1 F:z2y           7
                        (      91.410 eV)
   181     181       --         3.359 au  O             1.00      1 F:x             7
                        (      91.410 eV)
   182     182       --         3.359 au  O             1.00      1 F:y             7
                        (      91.410 eV)
   183     183      2.000     -18.941 au  O             1.00      1 S               8
                        (    -515.403 eV)
   184     184      2.000      -0.876 au  O             1.00      2 S               8
                        (     -23.838 eV)
   185     185       --         0.791 au  O             1.00      3 S               8
                        (      21.524 eV)
   186     186       --        13.422 au  O             1.00      4 S               8
                        (     365.226 eV)
   187     187       --       121.561 au  O             1.00      5 S               8
                        (    3307.838 eV)
   188     188      1.333      -0.331 au  O             1.00      1 P:x             8
                        (      -9.020 eV)
   189     189       --         0.347 au  O             1.00      2 P:x             8
                        (       9.437 eV)
   190     190       --         3.820 au  O             1.00      3 P:x             8
                        (     103.939 eV)
   191     191      1.333      -0.331 au  O             1.00      1 P:y             8
                        (      -9.020 eV)
   192     192       --         0.347 au  O             1.00      2 P:y             8
                        (       9.437 eV)
   193     193       --         3.820 au  O             1.00      3 P:y             8
                        (     103.939 eV)
   194     194      1.333      -0.331 au  O             1.00      1 P:z             8
                        (      -9.020 eV)
   195     195       --         0.347 au  O             1.00      2 P:z             8
                        (       9.437 eV)
   196     196       --         3.820 au  O             1.00      3 P:z             8
                        (     103.939 eV)
   197     197       --         1.071 au  O             1.00      1 D:z2            8
                        (      29.134 eV)
   198     198       --         1.071 au  O             1.00      1 D:x2-y2         8
                        (      29.134 eV)
   199     199       --         1.071 au  O             1.00      1 D:xy            8
                        (      29.134 eV)
   200     200       --         1.071 au  O             1.00      1 D:xz            8
                        (      29.134 eV)
   201     201       --         1.071 au  O             1.00      1 D:yz            8
                        (      29.134 eV)
   202     202       --         3.359 au  O             1.00      1 F:z3            8
                        (      91.410 eV)
   203     203       --         3.359 au  O             1.00      1 F:z             8
                        (      91.410 eV)
   204     204       --         3.359 au  O             1.00      1 F:xyz           8
                        (      91.410 eV)
   205     205       --         3.359 au  O             1.00      1 F:z2x           8
                        (      91.410 eV)
   206     206       --         3.359 au  O             1.00      1 F:z2y           8
                        (      91.410 eV)
   207     207       --         3.359 au  O             1.00      1 F:x             8
                        (      91.410 eV)
   208     208       --         3.359 au  O             1.00      1 F:y             8
                        (      91.410 eV)
   209     209      2.000     -18.941 au  O             1.00      1 S               9
                        (    -515.403 eV)
   210     210      2.000      -0.876 au  O             1.00      2 S               9
                        (     -23.838 eV)
   211     211       --         0.791 au  O             1.00      3 S               9
                        (      21.524 eV)
   212     212       --        13.422 au  O             1.00      4 S               9
                        (     365.226 eV)
   213     213       --       121.561 au  O             1.00      5 S               9
                        (    3307.838 eV)
   214     214      1.333      -0.331 au  O             1.00      1 P:x             9
                        (      -9.020 eV)
   215     215       --         0.347 au  O             1.00      2 P:x             9
                        (       9.437 eV)
   216     216       --         3.820 au  O             1.00      3 P:x             9
                        (     103.939 eV)
   217     217      1.333      -0.331 au  O             1.00      1 P:y             9
                        (      -9.020 eV)
   218     218       --         0.347 au  O             1.00      2 P:y             9
                        (       9.437 eV)
   219     219       --         3.820 au  O             1.00      3 P:y             9
                        (     103.939 eV)
   220     220      1.333      -0.331 au  O             1.00      1 P:z             9
                        (      -9.020 eV)
   221     221       --         0.347 au  O             1.00      2 P:z             9
                        (       9.437 eV)
   222     222       --         3.820 au  O             1.00      3 P:z             9
                        (     103.939 eV)
   223     223       --         1.071 au  O             1.00      1 D:z2            9
                        (      29.134 eV)
   224     224       --         1.071 au  O             1.00      1 D:x2-y2         9
                        (      29.134 eV)
   225     225       --         1.071 au  O             1.00      1 D:xy            9
                        (      29.134 eV)
   226     226       --         1.071 au  O             1.00      1 D:xz            9
                        (      29.134 eV)
   227     227       --         1.071 au  O             1.00      1 D:yz            9
                        (      29.134 eV)
   228     228       --         3.359 au  O             1.00      1 F:z3            9
                        (      91.410 eV)
   229     229       --         3.359 au  O             1.00      1 F:z             9
                        (      91.410 eV)
   230     230       --         3.359 au  O             1.00      1 F:xyz           9
                        (      91.410 eV)
   231     231       --         3.359 au  O             1.00      1 F:z2x           9
                        (      91.410 eV)
   232     232       --         3.359 au  O             1.00      1 F:z2y           9
                        (      91.410 eV)
   233     233       --         3.359 au  O             1.00      1 F:x             9
                        (      91.410 eV)
   234     234       --         3.359 au  O             1.00      1 F:y             9
                        (      91.410 eV)
   235     235      2.000     -18.941 au  O             1.00      1 S              10
                        (    -515.403 eV)
   236     236      2.000      -0.876 au  O             1.00      2 S              10
                        (     -23.838 eV)
   237     237       --         0.791 au  O             1.00      3 S              10
                        (      21.524 eV)
   238     238       --        13.422 au  O             1.00      4 S              10
                        (     365.226 eV)
   239     239       --       121.561 au  O             1.00      5 S              10
                        (    3307.838 eV)
   240     240      1.333      -0.331 au  O             1.00      1 P:x            10
                        (      -9.020 eV)
   241     241       --         0.347 au  O             1.00      2 P:x            10
                        (       9.437 eV)
   242     242       --         3.820 au  O             1.00      3 P:x            10
                        (     103.939 eV)
   243     243      1.333      -0.331 au  O             1.00      1 P:y            10
                        (      -9.020 eV)
   244     244       --         0.347 au  O             1.00      2 P:y            10
                        (       9.437 eV)
   245     245       --         3.820 au  O             1.00      3 P:y            10
                        (     103.939 eV)
   246     246      1.333      -0.331 au  O             1.00      1 P:z            10
                        (      -9.020 eV)
   247     247       --         0.347 au  O             1.00      2 P:z            10
                        (       9.437 eV)
   248     248       --         3.820 au  O             1.00      3 P:z            10
                        (     103.939 eV)
   249     249       --         1.071 au  O             1.00      1 D:z2           10
                        (      29.134 eV)
   250     250       --         1.071 au  O             1.00      1 D:x2-y2        10
                        (      29.134 eV)
   251     251       --         1.071 au  O             1.00      1 D:xy           10
                        (      29.134 eV)
   252     252       --         1.071 au  O             1.00      1 D:xz           10
                        (      29.134 eV)
   253     253       --         1.071 au  O             1.00      1 D:yz           10
                        (      29.134 eV)
   254     254       --         3.359 au  O             1.00      1 F:z3           10
                        (      91.410 eV)
   255     255       --         3.359 au  O             1.00      1 F:z            10
                        (      91.410 eV)
   256     256       --         3.359 au  O             1.00      1 F:xyz          10
                        (      91.410 eV)
   257     257       --         3.359 au  O             1.00      1 F:z2x          10
                        (      91.410 eV)
   258     258       --         3.359 au  O             1.00      1 F:z2y          10
                        (      91.410 eV)
   259     259       --         3.359 au  O             1.00      1 F:x            10
                        (      91.410 eV)
   260     260       --         3.359 au  O             1.00      1 F:y            10
                        (      91.410 eV)
   261     261      2.000     -14.160 au  N             1.00      1 S              11
                        (    -385.319 eV)
   262     262      2.000      -0.678 au  N             1.00      2 S              11
                        (     -18.450 eV)
   263     263       --         0.517 au  N             1.00      3 S              11
                        (      14.073 eV)
   264     264       --         6.872 au  N             1.00      4 S              11
                        (     186.990 eV)
   265     265       --        63.432 au  N             1.00      5 S              11
                        (    1726.082 eV)
   266     266      1.000      -0.260 au  N             1.00      1 P:x            11
                        (      -7.062 eV)
   267     267       --         0.281 au  N             1.00      2 P:x            11
                        (       7.649 eV)
   268     268       --         3.275 au  N             1.00      3 P:x            11
                        (      89.105 eV)
   269     269      1.000      -0.260 au  N             1.00      1 P:y            11
                        (      -7.062 eV)
   270     270       --         0.281 au  N             1.00      2 P:y            11
                        (       7.649 eV)
   271     271       --         3.275 au  N             1.00      3 P:y            11
                        (      89.105 eV)
   272     272      1.000      -0.260 au  N             1.00      1 P:z            11
                        (      -7.062 eV)
   273     273       --         0.281 au  N             1.00      2 P:z            11
                        (       7.649 eV)
   274     274       --         3.275 au  N             1.00      3 P:z            11
                        (      89.105 eV)
   275     275       --         1.250 au  N             1.00      1 D:z2           11
                        (      34.005 eV)
   276     276       --         1.250 au  N             1.00      1 D:x2-y2        11
                        (      34.005 eV)
   277     277       --         1.250 au  N             1.00      1 D:xy           11
                        (      34.005 eV)
   278     278       --         1.250 au  N             1.00      1 D:xz           11
                        (      34.005 eV)
   279     279       --         1.250 au  N             1.00      1 D:yz           11
                        (      34.005 eV)
   280     280       --         4.013 au  N             1.00      1 F:z3           11
                        (     109.190 eV)
   281     281       --         4.013 au  N             1.00      1 F:z            11
                        (     109.190 eV)
   282     282       --         4.013 au  N             1.00      1 F:xyz          11
                        (     109.190 eV)
   283     283       --         4.013 au  N             1.00      1 F:z2x          11
                        (     109.190 eV)
   284     284       --         4.013 au  N             1.00      1 F:z2y          11
                        (     109.190 eV)
   285     285       --         4.013 au  N             1.00      1 F:x            11
                        (     109.190 eV)
   286     286       --         4.013 au  N             1.00      1 F:y            11
                        (     109.190 eV)
   287     287      2.000     -14.160 au  N             1.00      1 S              12
                        (    -385.319 eV)
   288     288      2.000      -0.678 au  N             1.00      2 S              12
                        (     -18.450 eV)
   289     289       --         0.517 au  N             1.00      3 S              12
                        (      14.073 eV)
   290     290       --         6.872 au  N             1.00      4 S              12
                        (     186.990 eV)
   291     291       --        63.432 au  N             1.00      5 S              12
                        (    1726.082 eV)
   292     292      1.000      -0.260 au  N             1.00      1 P:x            12
                        (      -7.062 eV)
   293     293       --         0.281 au  N             1.00      2 P:x            12
                        (       7.649 eV)
   294     294       --         3.275 au  N             1.00      3 P:x            12
                        (      89.105 eV)
   295     295      1.000      -0.260 au  N             1.00      1 P:y            12
                        (      -7.062 eV)
   296     296       --         0.281 au  N             1.00      2 P:y            12
                        (       7.649 eV)
   297     297       --         3.275 au  N             1.00      3 P:y            12
                        (      89.105 eV)
   298     298      1.000      -0.260 au  N             1.00      1 P:z            12
                        (      -7.062 eV)
   299     299       --         0.281 au  N             1.00      2 P:z            12
                        (       7.649 eV)
   300     300       --         3.275 au  N             1.00      3 P:z            12
                        (      89.105 eV)
   301     301       --         1.250 au  N             1.00      1 D:z2           12
                        (      34.005 eV)
   302     302       --         1.250 au  N             1.00      1 D:x2-y2        12
                        (      34.005 eV)
   303     303       --         1.250 au  N             1.00      1 D:xy           12
                        (      34.005 eV)
   304     304       --         1.250 au  N             1.00      1 D:xz           12
                        (      34.005 eV)
   305     305       --         1.250 au  N             1.00      1 D:yz           12
                        (      34.005 eV)
   306     306       --         4.013 au  N             1.00      1 F:z3           12
                        (     109.190 eV)
   307     307       --         4.013 au  N             1.00      1 F:z            12
                        (     109.190 eV)
   308     308       --         4.013 au  N             1.00      1 F:xyz          12
                        (     109.190 eV)
   309     309       --         4.013 au  N             1.00      1 F:z2x          12
                        (     109.190 eV)
   310     310       --         4.013 au  N             1.00      1 F:z2y          12
                        (     109.190 eV)
   311     311       --         4.013 au  N             1.00      1 F:x            12
                        (     109.190 eV)
   312     312       --         4.013 au  N             1.00      1 F:y            12
                        (     109.190 eV)
   313     313      1.000      -0.240 au  H             1.00      1 S              13
                        (      -6.532 eV)
   314     314       --         0.088 au  H             1.00      2 S              13
                        (       2.394 eV)
   315     315       --         1.502 au  H             1.00      3 S              13
                        (      40.869 eV)
   316     316       --         0.406 au  H             1.00      1 P:x            13
                        (      11.051 eV)
   317     317       --         0.406 au  H             1.00      1 P:y            13
                        (      11.051 eV)
   318     318       --         0.406 au  H             1.00      1 P:z            13
                        (      11.051 eV)
   319     319       --         2.569 au  H             1.00      1 D:z2           13
                        (      69.917 eV)
   320     320       --         2.569 au  H             1.00      1 D:x2-y2        13
                        (      69.917 eV)
   321     321       --         2.569 au  H             1.00      1 D:xy           13
                        (      69.917 eV)
   322     322       --         2.569 au  H             1.00      1 D:xz           13
                        (      69.917 eV)
   323     323       --         2.569 au  H             1.00      1 D:yz           13
                        (      69.917 eV)
   324     324      1.000      -0.240 au  H             1.00      1 S              14
                        (      -6.532 eV)
   325     325       --         0.088 au  H             1.00      2 S              14
                        (       2.394 eV)
   326     326       --         1.502 au  H             1.00      3 S              14
                        (      40.869 eV)
   327     327       --         0.406 au  H             1.00      1 P:x            14
                        (      11.051 eV)
   328     328       --         0.406 au  H             1.00      1 P:y            14
                        (      11.051 eV)
   329     329       --         0.406 au  H             1.00      1 P:z            14
                        (      11.051 eV)
   330     330       --         2.569 au  H             1.00      1 D:z2           14
                        (      69.917 eV)
   331     331       --         2.569 au  H             1.00      1 D:x2-y2        14
                        (      69.917 eV)
   332     332       --         2.569 au  H             1.00      1 D:xy           14
                        (      69.917 eV)
   333     333       --         2.569 au  H             1.00      1 D:xz           14
                        (      69.917 eV)
   334     334       --         2.569 au  H             1.00      1 D:yz           14
                        (      69.917 eV)
   335     335      1.000      -0.240 au  H             1.00      1 S              15
                        (      -6.532 eV)
   336     336       --         0.088 au  H             1.00      2 S              15
                        (       2.394 eV)
   337     337       --         1.502 au  H             1.00      3 S              15
                        (      40.869 eV)
   338     338       --         0.406 au  H             1.00      1 P:x            15
                        (      11.051 eV)
   339     339       --         0.406 au  H             1.00      1 P:y            15
                        (      11.051 eV)
   340     340       --         0.406 au  H             1.00      1 P:z            15
                        (      11.051 eV)
   341     341       --         2.569 au  H             1.00      1 D:z2           15
                        (      69.917 eV)
   342     342       --         2.569 au  H             1.00      1 D:x2-y2        15
                        (      69.917 eV)
   343     343       --         2.569 au  H             1.00      1 D:xy           15
                        (      69.917 eV)
   344     344       --         2.569 au  H             1.00      1 D:xz           15
                        (      69.917 eV)
   345     345       --         2.569 au  H             1.00      1 D:yz           15
                        (      69.917 eV)
   346     346      1.000      -0.240 au  H             1.00      1 S              16
                        (      -6.532 eV)
   347     347       --         0.088 au  H             1.00      2 S              16
                        (       2.394 eV)
   348     348       --         1.502 au  H             1.00      3 S              16
                        (      40.869 eV)
   349     349       --         0.406 au  H             1.00      1 P:x            16
                        (      11.051 eV)
   350     350       --         0.406 au  H             1.00      1 P:y            16
                        (      11.051 eV)
   351     351       --         0.406 au  H             1.00      1 P:z            16
                        (      11.051 eV)
   352     352       --         2.569 au  H             1.00      1 D:z2           16
                        (      69.917 eV)
   353     353       --         2.569 au  H             1.00      1 D:x2-y2        16
                        (      69.917 eV)
   354     354       --         2.569 au  H             1.00      1 D:xy           16
                        (      69.917 eV)
   355     355       --         2.569 au  H             1.00      1 D:xz           16
                        (      69.917 eV)
   356     356       --         2.569 au  H             1.00      1 D:yz           16
                        (      69.917 eV)



 ================================
 (Slater-type)  F U N C T I O N S  ***  (Basis and Fit)  ***
 ================================
  

 Atom Type    1  (C)
 ==============

 Valence Basis Sets:  10
 -----------------------
   1 S    7.680000
   1 S    5.000000
   2 S    1.280000
   2 S    2.100000
   2 S    4.600000
   2 P    0.820000
   2 P    1.480000
   2 P    2.940000
   3 D    2.200000
   4 F    3.300000

 Atom Type    2  (O)
 ==============

 Valence Basis Sets:  10
 -----------------------
   1 S    9.800000
   1 S    6.800000
   2 S    7.580000
   2 S    2.880000
   2 S    1.720000
   2 P    4.080000
   2 P    2.080000
   2 P    1.120000
   3 D    2.000000
   4 F    3.000000

 Atom Type    3  (N)
 ==============

 Valence Basis Sets:  10
 -----------------------
   1 S    8.740000
   1 S    5.900000
   2 S    5.150000
   2 S    2.500000
   2 S    1.500000
   2 P    3.680000
   2 P    1.880000
   2 P    1.000000
   3 D    2.200000
   4 F    3.300000

 Atom Type    4  (H)
 ==============

 Valence Basis Sets:   5
 -----------------------
   1 S    0.690000
   1 S    0.920000
   1 S    1.580000
   2 P    1.250000
   3 D    2.500000


 BAS: List of all Elementary Cartesian Basis Functions
 =====================================================

 The numbering in the list below (to the right of the function characteristics) is referred
 to in print-outs of MO eigenvectors and Mulliken populations in the BAS representation
 (as contrasted to the SFO representation).

 Notes:
 1. The functions are characterized by a polynomial prefactor (powers of x,y,z and r) and
    an exponential decay factor alpha.
 2. Since the basis sets are specific for an atom TYPE, the individual functions occur on
    all atoms of that type.
 3. The word 'Core' in the left margin signals that it is a Core Function (CF) : not a
    degree of freedom in the valence set, but only used to ensure orthogonalization of
    the other valence basis functions on the frozen Core Orbitals.


 (power of) X  Y  Z  R     Alpha  on Atom
            ==========     =====     ==========

 C                                    1    2    3    4    5    6
                                  ---------------------------------------------------------------------------
            0  0  0  0     7.680      1   31   61   91  121  151
            0  0  0  0     5.000      2   32   62   92  122  152
            0  0  0  1     1.280      3   33   63   93  123  153
            0  0  0  1     2.100      4   34   64   94  124  154
            0  0  0  1     4.600      5   35   65   95  125  155
            1  0  0  0     0.820      6   36   66   96  126  156
            0  1  0  0     0.820      7   37   67   97  127  157
            0  0  1  0     0.820      8   38   68   98  128  158
            1  0  0  0     1.480      9   39   69   99  129  159
            0  1  0  0     1.480     10   40   70  100  130  160
            0  0  1  0     1.480     11   41   71  101  131  161
            1  0  0  0     2.940     12   42   72  102  132  162
            0  1  0  0     2.940     13   43   73  103  133  163
            0  0  1  0     2.940     14   44   74  104  134  164
            2  0  0  0     2.200     15   45   75  105  135  165
            1  1  0  0     2.200     16   46   76  106  136  166
            1  0  1  0     2.200     17   47   77  107  137  167
            0  2  0  0     2.200     18   48   78  108  138  168
            0  1  1  0     2.200     19   49   79  109  139  169
            0  0  2  0     2.200     20   50   80  110  140  170
            3  0  0  0     3.300     21   51   81  111  141  171
            2  1  0  0     3.300     22   52   82  112  142  172
            2  0  1  0     3.300     23   53   83  113  143  173
            1  2  0  0     3.300     24   54   84  114  144  174
            1  1  1  0     3.300     25   55   85  115  145  175
            1  0  2  0     3.300     26   56   86  116  146  176
            0  3  0  0     3.300     27   57   87  117  147  177
            0  2  1  0     3.300     28   58   88  118  148  178
            0  1  2  0     3.300     29   59   89  119  149  179
            0  0  3  0     3.300     30   60   90  120  150  180

 O                                    7    8    9   10
                                  ---------------------------------------------------------------------------
            0  0  0  0     9.800    181  211  241  271
            0  0  0  0     6.800    182  212  242  272
            0  0  0  1     7.580    183  213  243  273
            0  0  0  1     2.880    184  214  244  274
            0  0  0  1     1.720    185  215  245  275
            1  0  0  0     4.080    186  216  246  276
            0  1  0  0     4.080    187  217  247  277
            0  0  1  0     4.080    188  218  248  278
            1  0  0  0     2.080    189  219  249  279
            0  1  0  0     2.080    190  220  250  280
            0  0  1  0     2.080    191  221  251  281
            1  0  0  0     1.120    192  222  252  282
            0  1  0  0     1.120    193  223  253  283
            0  0  1  0     1.120    194  224  254  284
            2  0  0  0     2.000    195  225  255  285
            1  1  0  0     2.000    196  226  256  286
            1  0  1  0     2.000    197  227  257  287
            0  2  0  0     2.000    198  228  258  288
            0  1  1  0     2.000    199  229  259  289
            0  0  2  0     2.000    200  230  260  290
            3  0  0  0     3.000    201  231  261  291
            2  1  0  0     3.000    202  232  262  292
            2  0  1  0     3.000    203  233  263  293
            1  2  0  0     3.000    204  234  264  294
            1  1  1  0     3.000    205  235  265  295
            1  0  2  0     3.000    206  236  266  296
            0  3  0  0     3.000    207  237  267  297
            0  2  1  0     3.000    208  238  268  298
            0  1  2  0     3.000    209  239  269  299
            0  0  3  0     3.000    210  240  270  300

 N                                   11   12
                                  ---------------------------------------------------------------------------
            0  0  0  0     8.740    301  331
            0  0  0  0     5.900    302  332
            0  0  0  1     5.150    303  333
            0  0  0  1     2.500    304  334
            0  0  0  1     1.500    305  335
            1  0  0  0     3.680    306  336
            0  1  0  0     3.680    307  337
            0  0  1  0     3.680    308  338
            1  0  0  0     1.880    309  339
            0  1  0  0     1.880    310  340
            0  0  1  0     1.880    311  341
            1  0  0  0     1.000    312  342
            0  1  0  0     1.000    313  343
            0  0  1  0     1.000    314  344
            2  0  0  0     2.200    315  345
            1  1  0  0     2.200    316  346
            1  0  1  0     2.200    317  347
            0  2  0  0     2.200    318  348
            0  1  1  0     2.200    319  349
            0  0  2  0     2.200    320  350
            3  0  0  0     3.300    321  351
            2  1  0  0     3.300    322  352
            2  0  1  0     3.300    323  353
            1  2  0  0     3.300    324  354
            1  1  1  0     3.300    325  355
            1  0  2  0     3.300    326  356
            0  3  0  0     3.300    327  357
            0  2  1  0     3.300    328  358
            0  1  2  0     3.300    329  359
            0  0  3  0     3.300    330  360

 H                                   13   14   15   16
                                  ---------------------------------------------------------------------------
            0  0  0  0     0.690    361  373  385  397
            0  0  0  0     0.920    362  374  386  398
            0  0  0  0     1.580    363  375  387  399
            1  0  0  0     1.250    364  376  388  400
            0  1  0  0     1.250    365  377  389  401
            0  0  1  0     1.250    366  378  390  402
            2  0  0  0     2.500    367  379  391  403
            1  1  0  0     2.500    368  380  392  404
            1  0  1  0     2.500    369  381  393  405
            0  2  0  0     2.500    370  382  394  406
            0  1  1  0     2.500    371  383  395  407
            0  0  2  0     2.500    372  384  396  408

 Total number of charge fitting functions (nprimf)      1208
 Total number of Cartesian basis functions (naos)        408
 Total number of Cartesian core functions  (ncos)          0

 ***************************************************************************************************



                                              ***********************
                                              *  T E C H N I C A L  *
                                              ***********************
  



 =============================================================
 P A R A L L E L I Z A T I O N  and  V E C T O R I Z A T I O N
 =============================================================
  
 Nr of parallel processes:                                1
 Maximum vector length in NumInt loops:                 128



 =====================
 S C F   U P D A T E S
 =====================
  
 Max. nr. of cycles:                               200
 Convergence criterion:                              0.0000010000
   secondary criterion:                              0.0010000000

 Mix parameter (when DIIS does not apply):           0.2000000000
 Mixed ADIIS+SDIIS will be used                  
    Max number of expansion vectors:                10
    Pure ADIIS when Max([F,P]) is above              0.1000000000
    Pure SDIIS when Max([F,P]) is below              0.0010000000
 Automatic ElectronSmearing (in case of problematic SCF convergence) disabled



 =================
 P R E C I S I O N  ***  (General: NumInt, NeglectFunctionTails, ...)  ***
 =================
  

 NumInt:           Target precision:                 4.0000000000
 -------           Initial precision:                4.0000000000
                   Min. precision (optimization):    4.0000000000

 Neglect Functions:          Basis functions:        0.1000000000E-05
 ------------------          Fit functions:          0.1000000000E-05



 ===========================
 L I N E A R   S C A L I N G
 ===========================
  

 Cut-off radii density fit:                        0.1000000000E-07
 Overlap cut-off criterion AO matrix elements:     0.1000000000E-05
 Cut-offs for Coulomb potential and fitted density:0.1000000000E-07
 Cut-off criterion for Coulomb multipole terms:    0.1000000000E-07
 Progressive Convergence parameter:                 0.000000000    
 ***************************************************************************************************



                                            ***************************
                                            *  C O M P U T A T I O N  *
                                            ***************************
  

 Number of elements of the density matrix on this node (used, total):     83436     83436



 ===========================================
 Numerical Integration : Fuzzy Cells (Becke)
 ===========================================
  
 Becke grid quality: NORMAL         
  
 Lebedev angular grid order:             min:  11 max:  23
 Nr. of radial points:                   min:  46 max:  52

 Total nr. of points:     106921
 Nr. of blocks:              836
 Block length:               128
 Nr. of dummy points:         87


 Test of Precision of the Numerical Integration Grid
 ===================================================

 Integral of the Total Core Density:                   0.00000000000000



 ========================
 Density Fitting (zlmFit)
 ========================
  
 ZlmFit Fit Quality: NORMAL         
  
 Max L-expansion:                        min:   6 max:   7
 Nr. of radial interpolation points:     min:  39 max:  54



 =====
 S C F  ***  ScaSCF  ***
 =====
  
 Initial density matrix is calculated as sum of fragments

 CYCLE    1
 SCF Error: norm([F,P])=      8.388300411294, max([F,P])=      1.511455639371
 orbitals (Q,E):
 ---------------
 A :34...53          ( 2.00    -0.4894)  ( 2.00    -0.4803)  ( 2.00    -0.4680)  ( 2.00    -0.4657)
                     ( 2.00    -0.4586)  ( 2.00    -0.4289)  ( 2.00    -0.4196)  ( 2.00    -0.4156)
                     ( 2.00    -0.4046)  ( 2.00    -0.3155)  ( 0.00    -0.2250)  ( 0.00    -0.1603)
                     ( 0.00    -0.1500)  ( 0.00    -0.1316)  ( 0.00    -0.0645)  ( 0.00    -0.0502)
                     ( 0.00    -0.0469)  ( 0.00    -0.0430)  ( 0.00    -0.0077)  ( 0.00    -0.0006)

 CYCLE    2
   MIX coefficients:  0.8000  0.2000
 SCF Error: norm([F,P])=      1.488729697524, max([F,P])=      0.227653050678
 orbitals (Q,E):
 ---------------
 A :34...44          ( 2.00    -0.4405)  ( 2.00    -0.4316)  ( 2.00    -0.4200)  ( 2.00    -0.4094)
                     ( 2.00    -0.3941)  ( 2.00    -0.3866)  ( 2.00    -0.3771)  ( 2.00    -0.3646)
                     ( 2.00    -0.3390)  ( 2.00    -0.2830)  ( 0.00    -0.2146)

 CYCLE    3
  SDIIS (wt  0.000): -0.2992  1.2992
 A-DIIS (wt  1.000):  0.0000  1.0000
  DIIS coefficients:  0.0000  1.0000
 SCF Error: norm([F,P])=      0.611045928249, max([F,P])=      0.074775805508
 orbitals (Q,E):
 ---------------
 A :34...44          ( 2.00    -0.3232)  ( 2.00    -0.3053)  ( 2.00    -0.2859)  ( 2.00    -0.2783)
                     ( 2.00    -0.2758)  ( 2.00    -0.2632)  ( 2.00    -0.2347)  ( 2.00    -0.2128)
                     ( 2.00    -0.1868)  ( 2.00    -0.1672)  ( 0.00    -0.1112)

 CYCLE    4
  SDIIS (wt  0.000):  0.0227  0.5998  0.3775
 A-DIIS (wt  1.000):  0.0000  0.6891  0.3109
  DIIS coefficients:  0.0000  0.6891  0.3109
 SCF Error: norm([F,P])=      1.004813565175, max([F,P])=      0.183490981682
 orbitals (Q,E):
 ---------------
 A :34...44          ( 2.00    -0.3643)  ( 2.00    -0.3405)  ( 2.00    -0.3370)  ( 2.00    -0.3049)
                     ( 2.00    -0.3016)  ( 2.00    -0.2970)  ( 2.00    -0.2920)  ( 2.00    -0.2850)
                     ( 2.00    -0.2485)  ( 2.00    -0.2015)  ( 0.00    -0.1377)

 CYCLE    5
  SDIIS (wt  0.425):  0.0620  0.3019  0.2529  0.3832
 A-DIIS (wt  0.575):  0.0000  0.1836  0.0988  0.7176
  DIIS coefficients:  0.0264  0.2339  0.1644  0.5754
 SCF Error: norm([F,P])=      0.344471052031, max([F,P])=      0.057888415078
 orbitals (Q,E):
 ---------------
 A :34...44          ( 2.00    -0.3912)  ( 2.00    -0.3672)  ( 2.00    -0.3491)  ( 2.00    -0.3465)
                     ( 2.00    -0.3455)  ( 2.00    -0.3299)  ( 2.00    -0.3000)  ( 2.00    -0.2778)
                     ( 2.00    -0.2653)  ( 2.00    -0.2330)  ( 0.00    -0.1568)

 CYCLE    6
  SDIIS (wt  0.000): -0.0014  0.2150  0.0920  0.4634  0.2310
 A-DIIS (wt  1.000):  0.0000  0.0000  0.0000  0.6374  0.3626
  DIIS coefficients:  0.0000  0.0000  0.0000  0.6374  0.3626
 SCF Error: norm([F,P])=      0.522175919027, max([F,P])=      0.125430211536
 orbitals (Q,E):
 ---------------
 A :34...44          ( 2.00    -0.3928)  ( 2.00    -0.3660)  ( 2.00    -0.3575)  ( 2.00    -0.3478)
                     ( 2.00    -0.3389)  ( 2.00    -0.3300)  ( 2.00    -0.3118)  ( 2.00    -0.2945)
                     ( 2.00    -0.2640)  ( 2.00    -0.2305)  ( 0.00    -0.1688)

 CYCLE    7
  SDIIS (wt  0.701):  0.0033  0.0688  0.0207  0.3863  0.2176  0.3034
 A-DIIS (wt  0.299):  0.0000  0.0000  0.0000  0.0522  0.0000  0.9478
  DIIS coefficients:  0.0023  0.0482  0.0145  0.2864  0.1525  0.4961
 SCF Error: norm([F,P])=      0.141429496185, max([F,P])=      0.030604374813
 orbitals (Q,E):
 ---------------
 A :34...44          ( 2.00    -0.3813)  ( 2.00    -0.3534)  ( 2.00    -0.3489)  ( 2.00    -0.3258)
                     ( 2.00    -0.3210)  ( 2.00    -0.3159)  ( 2.00    -0.3061)  ( 2.00    -0.2892)
                     ( 2.00    -0.2646)  ( 2.00    -0.2177)  ( 0.00    -0.1528)

 CYCLE    8
  SDIIS (wt  0.710):  0.0013  0.0171  0.0097  0.2080  0.0917  0.3887  0.2835
 A-DIIS (wt  0.290):  0.0000  0.0000  0.0000  0.0000  0.0000  0.4579  0.5421
  DIIS coefficients:  0.0009  0.0122  0.0069  0.1478  0.0652  0.4087  0.3584
 SCF Error: norm([F,P])=      0.129639307267, max([F,P])=      0.029662271684
 orbitals (Q,E):
 ---------------
 A :34...44          ( 2.00    -0.3826)  ( 2.00    -0.3535)  ( 2.00    -0.3524)  ( 2.00    -0.3310)
                     ( 2.00    -0.3223)  ( 2.00    -0.3168)  ( 2.00    -0.3087)  ( 2.00    -0.2896)
                     ( 2.00    -0.2573)  ( 2.00    -0.2182)  ( 0.00    -0.1566)

 CYCLE    9
  SDIIS (wt  0.931):  0.0045 -0.0099  0.0075  0.0331  0.0122  0.2438  0.3144  0.3944
 A-DIIS (wt  0.069):  0.0000  0.0000  0.0000  0.0000  0.0000  0.0000  0.2280  0.7720
  DIIS coefficients:  0.0042 -0.0092  0.0070  0.0308  0.0113  0.2270  0.3084  0.4205
 SCF Error: norm([F,P])=      0.054430832834, max([F,P])=      0.007850980872
 orbitals (Q,E):
 ---------------
 A :34...44          ( 2.00    -0.3835)  ( 2.00    -0.3554)  ( 2.00    -0.3515)  ( 2.00    -0.3327)
                     ( 2.00    -0.3247)  ( 2.00    -0.3187)  ( 2.00    -0.3077)  ( 2.00    -0.2896)
                     ( 2.00    -0.2601)  ( 2.00    -0.2202)  ( 0.00    -0.1574)

 CYCLE   10
  SDIIS (wt  0.995):  0.0010 -0.0032  0.0037  0.0032 -0.0012  0.1047  0.1698  0.2645  0.4577
 A-DIIS (wt  0.005):  0.0000  0.0000  0.0000  0.0000  0.0000  0.0000  0.0000  0.0054  0.9946
  DIIS coefficients:  0.0010 -0.0032  0.0037  0.0031 -0.0012  0.1042  0.1690  0.2632  0.4602
 SCF Error: norm([F,P])=      0.008557031738, max([F,P])=      0.001464373997
 orbitals (Q,E):
 ---------------
[...]
                                    1.02%     1 P:y            -5.239  0.67     3 C
      -0.913  0.00    48 A         36.82%     1 S              -6.532  1.00    16 H
                                   22.59%     2 S               2.394  0.00    16 H
                                   10.84%     1 P:x            -7.062  1.00    12 N
                                   10.18%     1 P:x            -5.239  0.67     5 C
                                   -7.21%     2 P:x             7.649  0.00    11 N
                                    5.59%     1 P:z            -7.062  1.00    12 N
                                    4.86%     2 S               2.394  0.00    14 H
                                    4.31%     1 P:x            -7.062  1.00    11 N
                                    4.21%     1 P:z            -5.239  0.67     5 C
                                   -3.90%     2 P:z             7.649  0.00    11 N
                                    3.21%     1 S              -6.532  1.00    14 H
                                    2.74%     2 P:x             4.589  0.00     3 C
                                   -2.31%     2 P:x             4.589  0.00     4 C
                                    2.31%     1 P:x            -5.239  0.67     4 C
                                    1.91%     2 S               2.394  0.00    13 H
                                   -1.67%     2 P:x             4.589  0.00     5 C
                                    1.62%     2 S             -13.620  2.00     6 C
                                   -1.45%     3 S              10.158  0.00     3 C
                                   -1.38%     3 S              10.158  0.00     6 C
                                   -1.32%     3 S              10.158  0.00     1 C
                                    1.31%     1 P:z            -7.062  1.00    11 N
                                    1.17%     1 S              -6.532  1.00    13 H
                                   -1.17%     3 S              40.869  0.00    16 H
                                    1.10%     1 P:x            -5.239  0.67     1 C
      -0.487  0.00    49 A         24.68%     2 S               2.394  0.00    15 H
                                   21.55%     2 S               2.394  0.00    14 H
                                   20.53%     2 S               2.394  0.00    13 H
                                   13.26%     1 S              -6.532  1.00    13 H
                                   13.02%     1 S              -6.532  1.00    15 H
                                   12.25%     1 S              -6.532  1.00    14 H
                                  -10.46%     3 S              10.158  0.00     1 C
                                    8.19%     1 S              -6.532  1.00    16 H
                                    3.36%     2 S             -13.620  2.00     1 C
                                   -2.90%     2 P:x             4.589  0.00     2 C
                                   -2.79%     2 P:z             4.589  0.00     2 C
                                   -2.50%     2 P:x             4.589  0.00     1 C
                                    1.90%     2 S               2.394  0.00    16 H
                                    1.29%     1 P:z            11.051  0.00    15 H
                                   -1.18%     2 P:z             7.649  0.00    11 N
                                    1.04%     1 P:y            11.051  0.00    13 H
       0.335  0.00    50 A         44.46%     1 P:x            -5.239  0.67     1 C
                                   19.16%     2 P:x             4.589  0.00     1 C
                                   10.03%     1 P:y            -5.239  0.67     1 C
                                    6.92%     1 P:x            -9.020  1.33     7 O
                                    6.90%     2 P:y             4.589  0.00     1 C
                                   -5.96%     3 S              21.524  0.00     7 O
                                    4.82%     2 S             -23.838  2.00     7 O
                                   -3.41%     2 P:z             4.589  0.00     2 C
                                    2.95%     2 P:z             4.589  0.00     3 C
                                    2.90%     2 S             -13.620  2.00     1 C
                                   -2.83%     2 S             -13.620  2.00     2 C
                                    2.56%     1 P:z            -5.239  0.67     1 C
                                    2.50%     2 P:x             4.589  0.00     3 C
                                   -2.03%     1 P:z            -5.239  0.67     2 C
                                    2.02%     2 S             -13.620  2.00     3 C
                                   -1.89%     3 S              10.158  0.00     2 C
                                   -1.88%     3 S              10.158  0.00     3 C
                                    1.81%     1 P:z            -5.239  0.67     3 C
                                   -1.54%     2 P:x             9.437  0.00     7 O
                                   -1.53%     2 P:z             9.437  0.00     7 O
                                    1.42%     1 P:y            -9.020  1.33     7 O
                                    1.41%     1 P:x            11.051  0.00    14 H
                                    1.15%     1 P:x            11.051  0.00    15 H
                                    1.11%     1 P:x            11.051  0.00    13 H
       0.776  0.00    51 A         50.07%     1 S              -6.532  1.00    15 H
                                  -42.53%     2 P:z             4.589  0.00     1 C
                                   31.35%     2 S               2.394  0.00    15 H
                                   12.41%     1 S              -6.532  1.00    14 H
                                    8.82%     1 S              -6.532  1.00    13 H
                                    8.01%     2 S               2.394  0.00    14 H
                                    6.45%     1 P:z            -5.239  0.67     1 C
                                    4.91%     2 P:x             4.589  0.00     3 C
                                    3.61%     2 S               2.394  0.00    13 H
                                    2.85%     3 S              40.869  0.00    15 H
                                    2.37%     2 P:x             4.589  0.00     2 C
                                    1.90%     1 P:y            -5.239  0.67     2 C
                                    1.70%     1 P:x            -5.239  0.67     3 C
                                   -1.64%     2 P:x             4.589  0.00     1 C
                                   -1.38%     2 P:y             4.589  0.00     1 C
                                    1.26%     2 P:z             4.589  0.00     4 C
                                    1.17%     2 P:x             4.589  0.00     4 C
                                    1.13%     2 P:z             4.589  0.00     2 C
       0.947  0.00    52 A         35.81%     1 S              -6.532  1.00    13 H
                                   28.15%     2 S               2.394  0.00    13 H
                                   25.95%     1 S              -6.532  1.00    14 H
                                  -25.40%     2 P:y             4.589  0.00     1 C
                                   20.15%     2 S               2.394  0.00    14 H
                                   -4.75%     2 P:x             4.589  0.00     1 C
                                    4.72%     1 P:y            -5.239  0.67     1 C
                                    4.02%     2 P:y             4.589  0.00     2 C
                                    2.35%     3 S              40.869  0.00    13 H
                                    2.23%     3 S              40.869  0.00    14 H
                                    1.55%     2 P:y             4.589  0.00     3 C
                                    1.15%     1 P:y            11.051  0.00    13 H



 =======================================================================
 Electrostatic potential at the Nuclei due to electrons and other nuclei
 =======================================================================
  
         Atom                  Potential
         ----                  ---------
     1)   C                  14.69992236
     2)   O                  22.31024680
     3)   C                  14.61763330
     4)   O                  22.37153387
     5)   C                  14.63565304
     6)   N                  18.27484408
     7)   C                  14.67902656
     8)   C                  14.74088028
     9)   N                  18.41885335
    10)   C                  14.64229806
    11)   O                  22.40270929
    12)   O                  22.29107227
    13)   H                   1.07082005
    14)   H                   1.06899215
    15)   H                   1.06917611
    16)   H                   0.91408498
 Mulliken charges used for AMS results%charges...


    =====================
     CALCULATION RESULTS
    =====================

Energy (hartree)            -3.85295260


--------------
Atomic charges
--------------
  Index   Atom    Charge
      1      C    0.9382
      2      O   -0.5036
      3      C    0.7352
      4      O   -0.5461
      5      C    0.3082
      6      N    0.0473
      7      C    0.0279
      8      C    0.1131
      9      N   -0.2406
     10      C    0.6340
     11      O   -0.5182
     12      O   -0.4538
     13      H   -0.1696
     14      H   -0.1760
     15      H   -0.2095
     16      H    0.0136


Dipole moment vector    (Debye):    -7.15518205    0.49610018    1.62253162
              magnitude (Debye):     7.35359466


-----------------------
Molecular orbitals info
-----------------------
n orbitals:              356
n spin:                    1

Note: only printing virtual orbitals with
      energy smaller than HOMO + 100. eV

HOMO (eV):              -5.9863
LUMO (eV):              -4.2829
HOMO-LUMO gap (eV):      1.7034

   Index   Energy (eV)    Occupation
     221       93.1681         0.000       
     220       92.6380         0.000       
     219       92.1776         0.000       
     218       91.9620         0.000       
     217       91.5737         0.000       
     216       91.3683         0.000       
     215       90.8737         0.000       
     214       90.1301         0.000       
     213       89.3563         0.000       
     212       89.2377         0.000       
     211       88.6485         0.000       
     210       88.1085         0.000       
     209       87.2917         0.000       
     208       87.0038         0.000       
     207       86.5072         0.000       
     206       85.1405         0.000       
     205       83.4282         0.000       
     204       82.8489         0.000       
     203       81.4770         0.000       
     202       80.6188         0.000       
     201       79.5701         0.000       
     200       78.9608         0.000       
     199       78.0306         0.000       
     198       77.0658         0.000       
     197       76.8033         0.000       
     196       76.2526         0.000       
     195       76.0650         0.000       
     194       75.2307         0.000       
     193       74.9983         0.000       
     192       74.3277         0.000       
     191       72.9126         0.000       
     190       72.8135         0.000       
     189       72.6117         0.000       
     188       70.2630         0.000       
     187       69.7448         0.000       
     186       68.1637         0.000       
     185       67.4895         0.000       
     184       66.9867         0.000       
     183       66.6954         0.000       
     182       64.8166         0.000       
     181       64.2922         0.000       
     180       63.7559         0.000       
     179       63.1799         0.000       
     178       62.7053         0.000       
     177       61.4966         0.000       
     176       61.3604         0.000       
     175       60.9998         0.000       
     174       59.3315         0.000       
     173       58.9671         0.000       
     172       58.5999         0.000       
     171       57.7147         0.000       
     170       57.5999         0.000       
     169       56.6641         0.000       
     168       56.5102         0.000       
     167       55.7944         0.000       
     166       55.5996         0.000       
     165       54.6566         0.000       
     164       53.7425         0.000       
     163       52.8339         0.000       
     162       51.7672         0.000       
     161       51.3022         0.000       
     160       49.8000         0.000       
     159       49.1274         0.000       
     158       48.3966         0.000       
     157       47.5660         0.000       
     156       47.1214         0.000       
     155       46.8333         0.000       
     154       45.4906         0.000       
     153       45.2010         0.000       
     152       44.7186         0.000       
     151       44.6930         0.000       
     150       43.4513         0.000       
     149       43.0147         0.000       
     148       42.7847         0.000       
     147       41.9846         0.000       
     146       41.6225         0.000       
     145       41.2918         0.000       
     144       40.9923         0.000       
     143       40.0192         0.000       
     142       39.6828         0.000       
     141       39.1228         0.000       
     140       38.5358         0.000       
     139       38.1271         0.000       
     138       37.3379         0.000       
     137       36.5070         0.000       
     136       36.3180         0.000       
     135       35.5231         0.000       
     134       35.4328         0.000       
     133       34.7766         0.000       
     132       33.9103         0.000       
     131       33.7499         0.000       
     130       32.8011         0.000       
     129       32.2795         0.000       
     128       31.9170         0.000       
     127       31.6628         0.000       
     126       31.1287         0.000       
     125       30.5528         0.000       
     124       29.7364         0.000       
     123       29.1834         0.000       
     122       28.5286         0.000       
     121       28.1971         0.000       
     120       28.0311         0.000       
     119       27.3391         0.000       
     118       27.1525         0.000       
     117       26.5210         0.000       
     116       26.3050         0.000       
     115       25.7880         0.000       
     114       25.3155         0.000       
     113       24.9527         0.000       
     112       24.8619         0.000       
     111       24.4001         0.000       
     110       24.1967         0.000       
     109       23.2305         0.000       
     108       22.7061         0.000       
     107       22.0893         0.000       
     106       21.9500         0.000       
     105       21.2076         0.000       
     104       20.6234         0.000       
     103       19.8560         0.000       
     102       19.2192         0.000       
     101       19.1515         0.000       
     100       18.4195         0.000       
      99       18.0921         0.000       
      98       17.1384         0.000       
      97       16.9275         0.000       
      96       16.4483         0.000       
      95       16.1931         0.000       
      94       15.6880         0.000       
      93       15.0874         0.000       
      92       14.1875         0.000       
      91       13.5479         0.000       
      90       13.0126         0.000       
      89       12.5997         0.000       
      88       12.5403         0.000       
      87       11.6937         0.000       
      86       11.1569         0.000       
      85       10.9073         0.000       
      84       10.4388         0.000       
      83       10.2648         0.000       
      82        9.7833         0.000       
      81        9.3591         0.000       
      80        9.0938         0.000       
      79        8.8276         0.000       
      78        8.7340         0.000       
      77        8.5203         0.000       
      76        8.1314         0.000       
      75        7.8821         0.000       
      74        7.4962         0.000       
      73        7.4429         0.000       
      72        6.9052         0.000       
      71        6.5843         0.000       
      70        6.1890         0.000       
      69        6.0551         0.000       
      68        5.3559         0.000       
      67        5.2536         0.000       
      66        5.1198         0.000       
      65        4.8503         0.000       
      64        4.5822         0.000       
      63        4.4467         0.000       
      62        4.1535         0.000       
      61        3.8827         0.000       
      60        3.6372         0.000       
      59        3.4748         0.000       
      58        3.0658         0.000       
      57        2.5978         0.000       
      56        2.4040         0.000       
      55        2.0741         0.000       
      54        1.4948         0.000       
      53        1.2355         0.000       
      52        0.9467         0.000       
      51        0.7764         0.000       
      50        0.3347         0.000       
      49       -0.4870         0.000       
      48       -0.9128         0.000       
      47       -1.2993         0.000       
      46       -1.5324         0.000       
      45       -1.7881         0.000       
      44       -4.2829         0.000 < LUMO
      43       -5.9863         2.000 < HOMO
      42       -7.0779         2.000       
      41       -7.8810         2.000       
      40       -8.3746         2.000       
      39       -8.6705         2.000       
      38       -8.8295         2.000       
      37       -9.0433         2.000       
      36       -9.5651         2.000       
      35       -9.6681         2.000       
      34      -10.4372         2.000       
      33      -10.7080         2.000       
      32      -10.8430         2.000       
      31      -11.1211         2.000       
      30      -11.3306         2.000       
      29      -12.4222         2.000       
      28      -12.6749         2.000       
      27      -13.2874         2.000       
      26      -13.7868         2.000       
      25      -13.9271         2.000       
      24      -14.9838         2.000       
      23      -15.9104         2.000       
      22      -17.2326         2.000       
      21      -17.9081         2.000       
      20      -19.3478         2.000       
      19      -20.6154         2.000       
      18      -22.9119         2.000       
      17      -25.5697         2.000       
      16      -26.3624         2.000       
      15      -26.6773         2.000       
      14      -28.8621         2.000       
      13      -29.5985         2.000       
      12     -271.6127         2.000       
      11     -272.3272         2.000       
      10     -272.8931         2.000       
       9     -274.0065         2.000       
       8     -274.1793         2.000       
       7     -274.6697         2.000       
       6     -382.0752         2.000       
       5     -385.4267         2.000       
       4     -511.4337         2.000       
       3     -512.2887         2.000       
       2     -513.8376         2.000       
       1     -514.4661         2.000       

AMS application finished. Exiting.
NORMAL TERMINATION
     Total cpu time:      70.26
  Total system time:       0.76
 Total elapsed time:      71.65
NORMAL TERMINATION
