
 *******************************************************************************
 *                                                                             *
 *  --------------------------------                                           *
 *   Amsterdam Modeling Suite (AMS)              2026.103                      *
 *  --------------------------------                                           *
 *                                               r260501 2026-05-01 873454b5   *
 *                                                                             *
 *                                                                             *
 *                              =================                              *
 *                              |               |                              *
 *                              |     A M S     |                              *
 *                              |               |                              *
 *                              =================                              *
 *                                                                             *
 *                                                                             *
 *   Online information and documentation:  https://www.scm.com/support/       *
 *   E-mail:  support@scm.com   info@scm.com                                   *
 *                                                                             *
 *   Scientific publications using AMS results must be properly referenced     *
 *   See the User Manuals (or the web site) for recommended citations          *
 *   The terms and conditions of the End User License Agreement apply to       *
 *   the use of AMS, https://www.scm.com/license-terms/                        *
 *                                                                             *
 **********************  x86_64_linux_intel / intelmpi  ************************
 
 Licensed to: Jong-June Jeon / University of Seoul 2026-05-13 16:10:32
 SCM User ID: u30731
  
 AMS 2026.103  RunTime: May30-2026 12:43:43  ShM Nodes: 1  Procs: 1

 AMS jobname: c5_fragB_opt
 AMS jobid  : 857268261

 Start   directory: /gpfs/home1/yeseo1ee/projects/eda-asm-prediction/adf_outputs/batch_001/dipolar_001916/
 Results directory: /gpfs/home1/yeseo1ee/projects/eda-asm-prediction/adf_outputs/batch_001/dipolar_001916/c5_fragB_opt.results/
 Scratch directory: /tmp/amstmp_c5_fragB_opt_kid0.857268261/

 RNG seed: -1930532834 71520287 308019733 -311682942 -859107271 250810603 -208993917 577185538



                      ************************************************************************
                      *  ADF 2026.103  RunTime: May30-2026 12:43:43  ShM Nodes: 1  Procs: 1  *
                      ************************************************************************
  

       ***************************
       *  GEOMETRY OPTIMIZATION  *
       ***************************

Optimization Method                    Quasi Newton
Optimization Coordinates               Delocalized Coordinates
Optimize lattice                       F
 
 ------------------------------------------------------
 Convergence criteria (Hartree,Angstrom)
 ------------------------------------------------------
 Maximum gradient               0.000100000000
 Maximum rms gradient           0.000066666667
 Maximum step allowed           0.010000000000
 Maximum rms step allowed       0.006666666667
 Maximum energy change allowe   0.000280000000
 Maximum stress energy allowe   0.000500000000
 
Initial model Hessian                  Automatic Hessian
 
------------------------------------
Quasi-Newton Optimizer Parameters
------------------------------------
Hessian Update Method                  BFGS
Maximum number of steps                  200
First GDIIS cycle                          0
Maximum GDIIS vectors                      0
Trust radius (bohr)                        0.200000
Trust radius varies                        T
Constraints converged at all steps         T
Use projector                              T
 
 Rigid motions settings for: old optimizer
 Atomic rotations (x,y,z):     T T T
 Atomic translations (x,y,z):  T T T
 Tolerance:                  1.000000000000000E-006

--------
Geometry
--------
Formula: C9H12O7
Atoms
  Index Symbol   x (angstrom)   y (angstrom)   z (angstrom)
      1      C     0.72935000    -1.02674000     0.14117000
      2      O     1.65482000    -1.18781000     1.07523000
      3      C     3.01154000    -1.59261000     0.81609000
      4      C     0.70498000    -1.78221000    -1.15116000
      5      O    -0.12973000    -1.55006000    -2.01198000
      6      O     1.64566000    -2.70482000    -1.25910000
      7      C     1.69466000    -3.44250000    -2.49584000
      8      C    -0.48218000    -0.32742000     0.50054000
      9      C    -1.76496000    -0.82316000    -0.16682000
     10      O    -2.54957000    -0.10492000    -0.74678000
     11      O    -1.95025000    -2.11916000     0.04569000
     12      C    -3.12464000    -2.70532000    -0.54023000
     13      C    -0.79096000    -0.12515000     1.97351000
     14      O    -1.88287000    -0.40326000     2.43066000
     15      O     0.19736000     0.39333000     2.67831000
     16      C    -0.08238000     0.69696000     4.05523000
     17      H     3.58954000    -1.21199000     1.66624000
     18      H     3.37916000    -1.15297000    -0.11941000
     19      H     3.07654000    -2.68648000     0.77047000
     20      H     0.75365000    -3.98955000    -2.64526000
     21      H     1.86765000    -2.75624000    -3.33515000
     22      H     2.53261000    -4.13980000    -2.39025000
     23      H    -4.02941000    -2.22689000    -0.13999000
     24      H    -3.09885000    -3.76579000    -0.26648000
     25      H    -3.09402000    -2.58983000    -1.63308000
     26      H     0.84645000     1.11086000     4.46279000
     27      H    -0.89314000     1.43687000     4.11865000
     28      H    -0.36830000    -0.21447000     4.59832000

Total System Charge              0.00000


----------------
ADF Engine Input
----------------
 
   Basis
     Type TZ2P
     Core None
   End
   XC
     GGA BLYP
     Dispersion GRIMME3 BJDAMP
   End
   Symmetry NOSYM
   NumericalQuality Normal
   Unrestricted No
   SCF
     Iterations 200
     Converge 1.0e-6
   End
   Save TAPE21
 

 Title: *** (NO TITLE) ***

 Using automatic Hessian for delocalized coordinates.
 *** GO1_GOStep1 ***

 Energy gradients wrt nuclear displacements
 ==========================================

     Atom      Cartesian (a.u./angstrom)
                 X         Y         Z
 ----------------------------------------
     1 C     0.103277 -0.042175 -0.024195
     2 O    -0.019004 -0.003570 -0.020406
     3 C    -0.017307 -0.000436  0.004977
     4 C     0.033241 -0.043027  0.018495
     5 O    -0.004847  0.001704  0.009868
     6 O    -0.041735  0.029031 -0.018885
     7 C     0.001241  0.013765  0.018325
     8 C    -0.058466  0.104655 -0.015695
     9 C    -0.004199 -0.069090  0.020456
    10 O     0.011979 -0.011586  0.007876
    11 O    -0.014770  0.051141 -0.018923
    12 C     0.018665  0.005191  0.008652
    13 C     0.016029 -0.006511  0.051496
    14 O     0.023414  0.005387 -0.012363
    15 O    -0.051945 -0.025115 -0.007785
    16 C     0.004633 -0.002815 -0.021744
    17 H     0.001671  0.000978  0.003255
    18 H    -0.001681  0.002055 -0.003349
    19 H    -0.000963 -0.004015  0.000438
    20 H    -0.004140 -0.003629  0.001582
    21 H     0.003110  0.002769 -0.002086
    22 H     0.003398 -0.003046 -0.000664
    23 H    -0.003607  0.001498  0.003223
    24 H    -0.001189 -0.004078 -0.000431
    25 H     0.001565 -0.000897 -0.004515
    26 H     0.003276  0.001824  0.002701
    27 H    -0.002215  0.004594 -0.001539
    28 H     0.000570 -0.004602  0.001234
 ----------------------------------------
 
----------------------------------------------------------------------
Geometry Convergence after Step   1       (Hartree/Angstrom,Angstrom)
----------------------------------------------------------------------
current energy                               -6.01223558 Hartree
energy change                      -6.01223558     0.00028000    F
constrained gradient max            0.10465315     0.00010000    F
constrained gradient rms            0.02504342     0.00006667    F
gradient max                        0.10465315
gradient rms                        0.02504342
cart. step max                      0.17743965     0.01000000    F
cart. step rms                      0.05112817     0.00666667    F
 

--------
Geometry
--------
Formula: C9H12O7
Atoms
  Index Symbol   x (angstrom)   y (angstrom)   z (angstrom)
      1      C     0.68297628    -1.08032006     0.15721864
      2      O     1.63077288    -1.21941102     1.09210244
      3      C     3.01134359    -1.55130735     0.81571911
      4      C     0.71212028    -1.81588878    -1.15658690
      5      O    -0.09697547    -1.60628514    -2.04878365
      6      O     1.69956070    -2.72177362    -1.24125342
      7      C     1.79745021    -3.44835616    -2.49090547
      8      C    -0.51075440    -0.41134907     0.51602449
      9      C    -1.81278379    -0.84642080    -0.16123973
     10      O    -2.57559220    -0.08605096    -0.73038270
     11      O    -2.04608190    -2.15761765     0.03950991
     12      C    -3.25586175    -2.67770659    -0.55281026
     13      C    -0.79688362    -0.16799550     1.98339345
     14      O    -1.89175070    -0.41964918     2.47358558
     15      O     0.22918309     0.36615153     2.66463763
     16      C    -0.02633611     0.70056672     4.04758428
     17      H     3.57248940    -1.16404114     1.67211152
     18      H     3.35731627    -1.07264136    -0.10726183
     19      H     3.13238057    -2.63724381     0.74262687
     20      H     0.87784710    -4.01812890    -2.66990367
     21      H     1.96723924    -2.75013917    -3.31883341
     22      H     2.65088696    -4.12138780    -2.37213968
     23      H    -4.13351026    -2.16583031    -0.13930366
     24      H    -3.27628965    -3.74140429    -0.29821100
     25      H    -3.22799393    -2.54151560    -1.64146978
     26      H     0.91137752     1.11561447     4.42767170
     27      H    -0.83084934     1.44415594     4.11369190
     28      H    -0.30857096    -0.19515436     4.61457761

Total System Charge              0.00000

 *** GO1_GOStep2 ***

 Energy gradients wrt nuclear displacements
 ==========================================

     Atom      Cartesian (a.u./angstrom)
                 X         Y         Z
 ----------------------------------------
     1 C     0.062350 -0.024797 -0.016379
     2 O    -0.013060 -0.001335 -0.007433
     3 C    -0.010007 -0.002135  0.003809
     4 C     0.021837 -0.023085  0.020046
     5 O    -0.008160  0.001233 -0.002342
     6 O    -0.019448  0.012614 -0.013744
     7 C     0.001358  0.007392  0.011486
     8 C    -0.032443  0.086378 -0.019192
     9 C     0.004428 -0.052370  0.019226
    10 O    -0.004690  0.005667 -0.003204
    11 O    -0.013508  0.020635 -0.007406
    12 C     0.013389  0.003015  0.006231
    13 C     0.021082 -0.011233  0.021916
    14 O    -0.006489 -0.002314 -0.000784
    15 O    -0.021885 -0.013040  0.001386
    16 C     0.004280 -0.001147 -0.012881
    17 H     0.001736 -0.000213  0.001371
    18 H    -0.000683  0.000823 -0.001732
    19 H    -0.000142 -0.002580  0.000060
    20 H    -0.001780 -0.002307  0.000521
    21 H     0.001961  0.001361 -0.001161
    22 H     0.001806 -0.001865 -0.001121
    23 H    -0.002216  0.000525  0.001593
    24 H    -0.001204 -0.002392 -0.000488
    25 H     0.000664 -0.000583 -0.002630
    26 H     0.001394  0.001162  0.002242
    27 H    -0.001003  0.002722 -0.000622
    28 H     0.000432 -0.002133  0.001227
 ----------------------------------------

 dE(predicted):    -0.10288E-01, dE(actual):    -0.10545E-01, Trust radius:    0.400000, all in a.u.
 
----------------------------------------------------------------------
Geometry Convergence after Step   2       (Hartree/Angstrom,Angstrom)
----------------------------------------------------------------------
current energy                               -6.02278026 Hartree
energy change                      -0.01054468     0.00028000    F
constrained gradient max            0.08637809     0.00010000    F
constrained gradient rms            0.01636895     0.00006667    F
gradient max                        0.08637809
gradient rms                        0.01636895
cart. step max                      0.20329381     0.01000000    F
cart. step rms                      0.07126692     0.00666667    F
 

--------
Geometry
--------
Formula: C9H12O7
Atoms
  Index Symbol   x (angstrom)   y (angstrom)   z (angstrom)
      1      C     0.66831989    -1.19751695     0.25768434
      2      O     1.68784612    -1.30320431     1.14295152
      3      C     3.08271231    -1.48598469     0.77369407
      4      C     0.68590672    -1.88137631    -1.09431037
      5      O    -0.14026530    -1.67296462    -1.96341046
      6      O     1.69642047    -2.78834014    -1.21737519
      7      C     1.73930624    -3.48137524    -2.50008344
      8      C    -0.49283712    -0.57461148     0.63067408
      9      C    -1.78302389    -0.90966302    -0.11487934
     10      O    -2.47891522    -0.10039034    -0.69102809
     11      O    -2.06417930    -2.24081537     0.00042429
     12      C    -3.27725033    -2.66033721    -0.68272229
     13      C    -0.78633753    -0.22009127     2.06573785
     14      O    -1.88113670    -0.41240657     2.57407258
     15      O     0.25264125     0.37033513     2.72034331
     16      C    -0.04035932     0.77506393     4.08713232
     17      H     3.64523570    -1.09496095     1.62513373
     18      H     3.33621727    -0.92350140    -0.12999898
     19      H     3.30226662    -2.54634459     0.62731545
     20      H     0.81439285    -4.04433828    -2.65639754
     21      H     1.86792474    -2.75986118    -3.31274800
     22      H     2.59669896    -4.15282016    -2.43429570
     23      H    -4.14495067    -2.13466892    -0.27218956
     24      H    -3.35403247    -3.73422733    -0.50150481
     25      H    -3.19566683    -2.45013278    -1.75432636
     26      H     0.88389586     1.22213114     4.45706181
     27      H    -0.85733638     1.50408042     4.10153875
     28      H    -0.32078393    -0.09280750     4.69287602

Total System Charge              0.00000

 *** GO1_GOStep3 ***

 Energy gradients wrt nuclear displacements
 ==========================================

     Atom      Cartesian (a.u./angstrom)
                 X         Y         Z
 ----------------------------------------
     1 C    -0.002836 -0.005377  0.002927
     2 O    -0.000277  0.000096  0.000149
     3 C     0.000699 -0.002277  0.002929
     4 C    -0.001208  0.001238  0.004855
     5 O    -0.007383 -0.002966  0.003592
     6 O    -0.001264 -0.001324 -0.004908
     7 C    -0.000678  0.002465  0.002952
     8 C     0.011724  0.046564 -0.027310
     9 C    -0.003498 -0.018956  0.010125
    10 O     0.001597 -0.000784 -0.004801
    11 O     0.000036 -0.000598 -0.005136
    12 C     0.003773  0.001742  0.002316
    13 C     0.002354 -0.018206  0.008280
    14 O    -0.001442  0.001996  0.002045
    15 O    -0.002365 -0.001345  0.005521
    16 C     0.000323 -0.000316 -0.004130
    17 H     0.000423 -0.000700 -0.000003
    18 H     0.000706 -0.000731  0.000812
    19 H     0.000488  0.000174  0.000245
    20 H     0.000408 -0.000432 -0.000345
    21 H     0.000374 -0.000101 -0.000163
    22 H    -0.000277 -0.000102 -0.000636
    23 H    -0.000321 -0.000397 -0.000123
    24 H    -0.000439  0.000021 -0.000518
    25 H    -0.000697 -0.000341 -0.000305
    26 H    -0.000560 -0.000028  0.000697
    27 H     0.000203  0.000482  0.000430
    28 H     0.000138  0.000201  0.000503
 ----------------------------------------

 dE(predicted):    -0.11416E-01, dE(actual):    -0.10050E-01, Trust radius:    0.800000, all in a.u.
 
----------------------------------------------------------------------
Geometry Convergence after Step   3       (Hartree/Angstrom,Angstrom)
----------------------------------------------------------------------
current energy                               -6.03283069 Hartree
energy change                      -0.01005043     0.00028000    F
constrained gradient max            0.04656637     0.00010000    F
constrained gradient rms            0.00714163     0.00006667    F
gradient max                        0.04656637
gradient rms                        0.00714163
cart. step max                      0.21224759     0.01000000    F
cart. step rms                      0.06173313     0.00666667    F
 

--------
Geometry
--------
Formula: C9H12O7
Atoms
  Index Symbol   x (angstrom)   y (angstrom)   z (angstrom)
      1      C     0.65520509    -1.30530574     0.28438484
      2      O     1.68051172    -1.40415454     1.16546917
      3      C     3.07800595    -1.48941357     0.76947134
      4      C     0.72312339    -1.93317923    -1.09529331
      5      O    -0.04498952    -1.67112571    -1.99863431
      6      O     1.75212225    -2.82355231    -1.21265071
      7      C     1.85969935    -3.44903733    -2.52823194
      8      C    -0.50577219    -0.69799579     0.65880061
      9      C    -1.79792605    -0.96385691    -0.10558005
     10      O    -2.45911452    -0.11575615    -0.65815652
     11      O    -2.16840309    -2.27152518     0.04159165
     12      C    -3.41474484    -2.61798528    -0.62822608
     13      C    -0.79710723    -0.26220338     2.06744165
     14      O    -1.88608784    -0.42393277     2.58867947
     15      O     0.25164142     0.34943839     2.68957422
     16      C    -0.03478359     0.80020303     4.04541199
     17      H     3.62844745    -1.11080133     1.63400546
     18      H     3.28452112    -0.86629793    -0.10598702
     19      H     3.35341358    -2.52627440     0.56413694
     20      H     0.94839342    -4.01015289    -2.75357859
     21      H     2.01519388    -2.68495881    -3.29562885
     22      H     2.72072647    -4.11469515    -2.45663693
     23      H    -4.23864724    -2.02105992    -0.22599136
     24      H    -3.56628006    -3.67880748    -0.42105858
     25      H    -3.32310389    -2.43776392    -1.70401921
     26      H     0.89174433     1.26053857     4.39180219
     27      H    -0.85362998     1.52658172     4.03997419
     28      H    -0.30944938    -0.04805598     4.68029972

Total System Charge              0.00000

 *** GO1_GOStep4 ***

 Energy gradients wrt nuclear displacements
 ==========================================

     Atom      Cartesian (a.u./angstrom)
                 X         Y         Z
 ----------------------------------------
     1 C    -0.008450 -0.005795  0.006868
     2 O     0.000226  0.002385 -0.001416
     3 C     0.000479 -0.002399  0.000015
     4 C    -0.008588 -0.000447 -0.002086
     5 O     0.004350 -0.001676  0.004121
     6 O     0.003851  0.001113 -0.002015
     7 C    -0.001319  0.001632  0.001125
     8 C     0.014430  0.032801 -0.017841
     9 C    -0.004019 -0.009263 -0.008833
    10 O     0.003350 -0.007165  0.006100
    11 O    -0.005504 -0.000084  0.004921
    12 C     0.002594  0.002091  0.000829
    13 C    -0.008468 -0.011065  0.007715
    14 O     0.008607  0.001644 -0.002146
    15 O    -0.000654 -0.001155  0.003993
    16 C    -0.000787 -0.000837 -0.002046
    17 H    -0.000271 -0.000727  0.000146
    18 H     0.000630 -0.000991  0.000707
    19 H    -0.000181 -0.000075 -0.000112
    20 H     0.000536  0.000047 -0.000118
    21 H     0.000171 -0.000121  0.000058
    22 H    -0.000354  0.000297 -0.000211
    23 H     0.000043 -0.000526 -0.000355
    24 H    -0.000236  0.000237 -0.000225
    25 H    -0.000259 -0.000129  0.000135
    26 H    -0.000547 -0.000293  0.000101
    27 H     0.000262  0.000071  0.000263
    28 H     0.000108  0.000430  0.000306
 ----------------------------------------

 dE(predicted):    -0.10459E-01, dE(actual):    -0.38251E-02, Trust radius:    0.800000, all in a.u.
 
----------------------------------------------------------------------
Geometry Convergence after Step   4       (Hartree/Angstrom,Angstrom)
----------------------------------------------------------------------
current energy                               -6.03665579 Hartree
energy change                      -0.00382510     0.00028000    F
constrained gradient max            0.03280441     0.00010000    F
constrained gradient rms            0.00558487     0.00006667    F
gradient max                        0.03280441
gradient rms                        0.00558487
cart. step max                      0.21744814     0.01000000    F
cart. step rms                      0.06694758     0.00666667    F
 

--------
Geometry
--------
Formula: C9H12O7
Atoms
  Index Symbol   x (angstrom)   y (angstrom)   z (angstrom)
      1      C     0.64024455    -1.37043299     0.32046078
      2      O     1.68309645    -1.44386859     1.18271664
      3      C     3.06847425    -1.36307095     0.74625888
      4      C     0.72638746    -1.97336649    -1.07091081
      5      O    -0.03507460    -1.70744402    -1.97922843
      6      O     1.73868923    -2.88532868    -1.17237030
      7      C     1.84831143    -3.52647900    -2.48181908
      8      C    -0.53175415    -0.80753895     0.73018670
      9      C    -1.82955369    -0.98546079    -0.04420590
     10      O    -2.45892640    -0.08641364    -0.55341596
     11      O    -2.20844259    -2.29926489    -0.02568242
     12      C    -3.44355694    -2.58110351    -0.74873434
     13      C    -0.79577452    -0.32929824     2.12625068
     14      O    -1.87412022    -0.47281574     2.67491749
     15      O     0.26870013     0.30866362     2.69409369
     16      C     0.02726367     0.80038935     4.04577248
     17      H     3.60713117    -0.99232992     1.62158687
     18      H     3.18081587    -0.66043963    -0.08563758
     19      H     3.43615920    -2.34981272     0.45651391
     20      H     0.92779064    -4.07134430    -2.70995144
     21      H     2.02595001    -2.77305924    -3.25486565
     22      H     2.69550661    -4.20778201    -2.39330402
     23      H    -4.27309118    -2.01833675    -0.31033772
     24      H    -3.59998571    -3.65561431    -0.63850672
     25      H    -3.32908179    -2.30613034    -1.80194847
     26      H     0.96200136     1.27929582     4.34170883
     27      H    -0.79893707     1.51823068     4.04678902
     28      H    -0.21551317    -0.03097377     4.71503287

Total System Charge              0.00000

 *** GO1_GOStep5 ***

 Energy gradients wrt nuclear displacements
 ==========================================

     Atom      Cartesian (a.u./angstrom)
                 X         Y         Z
 ----------------------------------------
     1 C    -0.003277 -0.009680  0.006955
     2 O    -0.001571  0.004914 -0.002702
     3 C     0.001583 -0.002033 -0.000396
     4 C    -0.000293  0.005469 -0.004805
     5 O     0.001850 -0.004611  0.003658
     6 O     0.001534 -0.000498 -0.001487
     7 C    -0.000653  0.000244 -0.000225
     8 C     0.012119  0.020997 -0.009208
     9 C    -0.010842  0.003748  0.001182
    10 O     0.003142 -0.006242  0.000540
    11 O    -0.001205 -0.003197  0.001417
    12 C     0.001022  0.000690  0.000057
    13 C    -0.010428 -0.009598  0.006815
    14 O     0.006556  0.001753 -0.002952
    15 O     0.001961 -0.000477 -0.000045
    16 C    -0.000492 -0.000431 -0.000479
    17 H    -0.000903 -0.000565  0.000819
    18 H     0.000564 -0.001147  0.000891
    19 H    -0.000529  0.000402 -0.000172
    20 H     0.000372  0.000097 -0.000057
    21 H    -0.000022  0.000026  0.000187
    22 H    -0.000168  0.000170 -0.000008
    23 H     0.000223 -0.000192 -0.000106
    24 H    -0.000077  0.000179 -0.000104
    25 H    -0.000333 -0.000040  0.000215
    26 H    -0.000194 -0.000204 -0.000273
    27 H     0.000131 -0.000067  0.000114
    28 H    -0.000067  0.000294  0.000170
 ----------------------------------------

 dE(predicted):    -0.68607E-02, dE(actual):    -0.33794E-02, Trust radius:    0.800000, all in a.u.
 
----------------------------------------------------------------------
Geometry Convergence after Step   5       (Hartree/Angstrom,Angstrom)
----------------------------------------------------------------------
current energy                               -6.04003523 Hartree
energy change                      -0.00337944     0.00028000    F
constrained gradient max            0.02099837     0.00010000    F
constrained gradient rms            0.00418649     0.00006667    F
gradient max                        0.02099837
gradient rms                        0.00418649
cart. step max                      0.20541161     0.01000000    F
cart. step rms                      0.06276464     0.00666667    F
 

--------
Geometry
--------
Formula: C9H12O7
Atoms
  Index Symbol   x (angstrom)   y (angstrom)   z (angstrom)
      1      C     0.65048248    -1.43050784     0.35097829
      2      O     1.71116496    -1.51019687     1.19354766
      3      C     3.06357793    -1.24270791     0.72775270
      4      C     0.72065642    -2.02551505    -1.04504882
      5      O    -0.00182755    -1.69890751    -1.96741361
      6      O     1.70147995    -2.97410491    -1.13917325
      7      C     1.81216922    -3.60825582    -2.45366344
      8      C    -0.52803202    -0.91708822     0.79261228
      9      C    -1.80702937    -1.02112710    -0.01660514
     10      O    -2.42610743    -0.07101188    -0.44479381
     11      O    -2.20894767    -2.32629706    -0.09540075
     12      C    -3.45015435    -2.53671338    -0.83638816
     13      C    -0.78368436    -0.39724518     2.17220179
     14      O    -1.85499823    -0.54425255     2.73924785
     15      O     0.27660513     0.28107331     2.70398337
     16      C     0.04837496     0.80925678     4.04587197
     17      H     3.59779878    -0.89863289     1.61638101
     18      H     3.06485854    -0.45502802    -0.03361887
     19      H     3.51986226    -2.15166519     0.32969093
     20      H     0.87557958    -4.11533963    -2.70262840
     21      H     2.03184630    -2.85589639    -3.21672296
     22      H     2.63118207    -4.32175870    -2.35488722
     23      H    -4.26981767    -1.99132299    -0.35923320
     24      H    -3.62351232    -3.61356739    -0.79999948
     25      H    -3.32888953    -2.19115869    -1.86768360
     26      H     0.97716148     1.31801864     4.30911481
     27      H    -0.79475400     1.50680262     4.04063124
     28      H    -0.16233557    -0.00798019     4.74261680

Total System Charge              0.00000

 *** GO1_GOStep6 ***

 Energy gradients wrt nuclear displacements
 ==========================================

     Atom      Cartesian (a.u./angstrom)
                 X         Y         Z
 ----------------------------------------
     1 C     0.000936 -0.002031  0.002235
     2 O    -0.001242  0.004595 -0.002411
     3 C     0.002869 -0.001616  0.001694
     4 C    -0.007261 -0.000502 -0.000217
     5 O     0.000826 -0.000380 -0.000195
     6 O     0.003349 -0.001408 -0.001702
     7 C    -0.000052 -0.000603 -0.001678
     8 C     0.006969  0.006736  0.001434
     9 C     0.000129  0.005740 -0.006011
    10 O    -0.001486 -0.001396  0.001409
    11 O    -0.000193 -0.004583  0.002786
    12 C    -0.001006  0.000019 -0.000232
    13 C    -0.004419 -0.006524 -0.000725
    14 O    -0.001266  0.000514 -0.000037
    15 O     0.003522  0.001249  0.000714
    16 C    -0.000173  0.000281  0.000827
    17 H    -0.001302 -0.000245  0.000853
    18 H     0.000430 -0.001019  0.000386
    19 H    -0.000341  0.001587  0.000443
    20 H     0.000192  0.000297  0.000026
    21 H    -0.000205 -0.000307  0.000150
    22 H    -0.000117  0.000131  0.000049
    23 H     0.000069 -0.000340 -0.000256
    24 H    -0.000009  0.000062  0.000104
    25 H    -0.000104  0.000016  0.000451
    26 H    -0.000041 -0.000190 -0.000189
    27 H     0.000051 -0.000286  0.000196
    28 H    -0.000124  0.000201 -0.000104
 ----------------------------------------

 dE(predicted):    -0.33203E-02, dE(actual):    -0.20958E-02, Trust radius:    0.800000, all in a.u.
 
----------------------------------------------------------------------
Geometry Convergence after Step   6       (Hartree/Angstrom,Angstrom)
----------------------------------------------------------------------
current energy                               -6.04213105 Hartree
energy change                      -0.00209583     0.00028000    F
constrained gradient max            0.00726287     0.00010000    F
constrained gradient rms            0.00221959     0.00006667    F
gradient max                        0.00726287
gradient rms                        0.00221959
cart. step max                      0.21571345     0.01000000    F
cart. step rms                      0.07139303     0.00666667    F
 

--------
Geometry
--------
Formula: C9H12O7
Atoms
  Index Symbol   x (angstrom)   y (angstrom)   z (angstrom)
      1      C     0.62238580    -1.51866623     0.42297235
      2      O     1.71310046    -1.62231349     1.22489195
      3      C     3.00205466    -1.21047864     0.68925079
      4      C     0.69071822    -2.06110078    -0.99219616
      5      O     0.00953464    -1.66276086    -1.91905505
      6      O     1.63942103    -3.04008762    -1.08992929
      7      C     1.78573044    -3.62034613    -2.42596516
      8      C    -0.55333266    -1.03975573     0.90143921
      9      C    -1.82454841    -1.08803875     0.08438015
     10      O    -2.40101501    -0.10163376    -0.32476424
     11      O    -2.22347940    -2.37807008    -0.12025053
     12      C    -3.40726594    -2.52324951    -0.96553047
     13      C    -0.76891026    -0.45074618     2.25800678
     14      O    -1.81035724    -0.60275657     2.87853534
     15      O     0.29040576     0.28254165     2.71053118
     16      C     0.09830196     0.87892227     4.03011369
     17      H     3.58658665    -0.89981407     1.55816378
     18      H     2.87891085    -0.36146657     0.00612991
     19      H     3.48716399    -2.04313904     0.17333598
     20      H     0.84347379    -4.08146626    -2.73612536
     21      H     2.06453440    -2.84393319    -3.14452798
     22      H     2.57450545    -4.36681359    -2.32435823
     23      H    -4.25638325    -2.00106134    -0.51429249
     24      H    -3.58921841    -3.59810570    -1.01571293
     25      H    -3.20455803    -2.11008826    -1.95859857
     26      H     1.02110869     1.42674796     4.22845467
     27      H    -0.76479955     1.55148872     4.01945005
     28      H    -0.06135862     0.09506176     4.77702065

Total System Charge              0.00000

 *** GO1_GOStep7 ***

 Energy gradients wrt nuclear displacements
 ==========================================

     Atom      Cartesian (a.u./angstrom)
                 X         Y         Z
 ----------------------------------------
     1 C     0.006322  0.004450  0.001450
     2 O     0.000087 -0.001811 -0.003180
     3 C    -0.000990 -0.003011  0.000380
     4 C    -0.005380 -0.001046  0.000670
     5 O    -0.001641  0.002818 -0.001536
     6 O     0.003756  0.000152  0.003574
     7 C     0.000609 -0.000406 -0.002410
     8 C     0.002908 -0.004863  0.001349
     9 C    -0.004453  0.004999  0.008557
    10 O     0.002526 -0.000293 -0.004458
    11 O     0.001442 -0.003833 -0.001142
    12 C    -0.001110 -0.000346 -0.000912
    13 C    -0.001453  0.002200 -0.007156
    14 O    -0.002150 -0.001297  0.001561
    15 O     0.002233  0.000673  0.002232
    16 C    -0.000345  0.001109  0.000843
    17 H    -0.000853  0.000029  0.000346
    18 H    -0.000540 -0.000095 -0.000799
    19 H    -0.000427  0.000987 -0.000141
    20 H    -0.000067  0.000372  0.000183
    21 H    -0.000198 -0.000298  0.000073
    22 H    -0.000006  0.000194  0.000235
    23 H     0.000006  0.000036  0.000243
    24 H     0.000112 -0.000156  0.000036
    25 H    -0.000417 -0.000225  0.000101
    26 H     0.000055 -0.000050 -0.000067
    27 H     0.000012 -0.000208  0.000150
    28 H    -0.000036 -0.000082 -0.000184
 ----------------------------------------

 dE(predicted):    -0.16436E-02, dE(actual):    -0.87300E-03, Trust radius:    0.800000, all in a.u.
 
----------------------------------------------------------------------
Geometry Convergence after Step   7       (Hartree/Angstrom,Angstrom)
----------------------------------------------------------------------
current energy                               -6.04300405 Hartree
energy change                      -0.00087300     0.00028000    F
constrained gradient max            0.00853010     0.00010000    F
constrained gradient rms            0.00229881     0.00006667    F
gradient max                        0.00853010
gradient rms                        0.00229881
cart. step max                      0.21143955     0.01000000    F
cart. step rms                      0.06367930     0.00666667    F
 

--------
Geometry
--------
Formula: C9H12O7
Atoms
  Index Symbol   x (angstrom)   y (angstrom)   z (angstrom)
      1      C     0.62306581    -1.54715802     0.43644084
      2      O     1.72915446    -1.60621104     1.22295610
      3      C     2.95976060    -1.06508758     0.66357127
      4      C     0.71523790    -2.08427846    -0.97804382
      5      O     0.03516489    -1.70001223    -1.91090003
      6      O     1.62234219    -3.10075304    -1.04534658
      7      C     1.75883647    -3.71658868    -2.36517567
      8      C    -0.56028957    -1.09570106     0.92390967
      9      C    -1.82414286    -1.10642120     0.09891024
     10      O    -2.42244961    -0.09755924    -0.21339325
     11      O    -2.22599937    -2.37703609    -0.18199605
     12      C    -3.39727822    -2.46507177    -1.05114397
     13      C    -0.75044111    -0.51341191     2.28728516
     14      O    -1.77513849    -0.67384073     2.93095372
     15      O     0.30487394     0.24016509     2.70591950
     16      C     0.14043489     0.83870385     4.02763605
     17      H     3.55705892    -0.74654021     1.52097406
     18      H     2.73977535    -0.19740607     0.02917472
     19      H     3.48765087    -1.83169948     0.08858283
     20      H     0.80282744    -4.14968220    -2.67456364
     21      H     2.07383486    -2.96744003    -3.09805478
     22      H     2.51809858    -4.48967715    -2.23914543
     23      H    -4.24818785    -1.95782028    -0.58608562
     24      H    -3.58900492    -3.53379973    -1.16111538
     25      H    -3.17306917    -2.00221679    -2.01761452
     26      H     1.05815392     1.40474088     4.19718046
     27      H    -0.73494549     1.49546186     4.03841713
     28      H     0.01738558     0.05521133     4.78203699

Total System Charge              0.00000

 *** GO1_GOStep8 ***

 Energy gradients wrt nuclear displacements
 ==========================================

     Atom      Cartesian (a.u./angstrom)
                 X         Y         Z
 ----------------------------------------
     1 C     0.005125 -0.000881  0.001798
     2 O    -0.001818 -0.000337 -0.004006
     3 C    -0.001319 -0.001724  0.000951
     4 C     0.008042  0.008706 -0.003023
     5 O    -0.003908 -0.002796  0.001754
     6 O    -0.002697 -0.002430  0.003250
     7 C     0.000147 -0.000536 -0.001233
     8 C    -0.005647 -0.003933  0.007451
     9 C     0.002525  0.005173 -0.005718
    10 O     0.000027 -0.002193  0.001344
    11 O    -0.000803 -0.000812  0.002373
    12 C    -0.000234 -0.000121 -0.000944
    13 C     0.004137 -0.000956 -0.004283
    14 O    -0.001368  0.000836 -0.000499
    15 O    -0.000316 -0.000858  0.000357
    16 C     0.000095  0.000643  0.000516
    17 H    -0.000398  0.000850  0.000036
    18 H    -0.000781  0.000302 -0.001121
    19 H    -0.000495  0.000933  0.000291
    20 H    -0.000136  0.000107  0.000067
    21 H    -0.000107  0.000181  0.000137
    22 H    -0.000005 -0.000058  0.000222
    23 H    -0.000109  0.000200  0.000474
    24 H     0.000035 -0.000244  0.000175
    25 H    -0.000148  0.000083 -0.000246
    26 H     0.000101  0.000095  0.000021
    27 H    -0.000032  0.000003 -0.000017
    28 H     0.000088 -0.000230 -0.000129
 ----------------------------------------

 dE(predicted):    -0.72198E-03, dE(actual):    -0.15054E-03, Trust radius:    0.800000, all in a.u.
 
----------------------------------------------------------------------
Geometry Convergence after Step   8       (Hartree/Angstrom,Angstrom)
----------------------------------------------------------------------
current energy                               -6.04315459 Hartree
energy change                      -0.00015054     0.00028000    T
constrained gradient max            0.00871373     0.00010000    F
constrained gradient rms            0.00240402     0.00006667    F
gradient max                        0.00871373
gradient rms                        0.00240402
cart. step max                      0.05924580     0.01000000    F
cart. step rms                      0.02442186     0.00666667    F
 

--------
Geometry
--------
Formula: C9H12O7
Atoms
  Index Symbol   x (angstrom)   y (angstrom)   z (angstrom)
      1      C     0.59467853    -1.55494743     0.43820182
      2      O     1.70220926    -1.60622260     1.22722287
      3      C     2.94607516    -1.09196614     0.66821477
      4      C     0.68033579    -2.11978102    -0.96681846
      5      O     0.03374867    -1.71799776    -1.91532213
      6      O     1.62243032    -3.10260084    -1.03796413
      7      C     1.78972109    -3.70042904    -2.36161448
      8      C    -0.58229320    -1.08820383     0.92719521
      9      C    -1.86077656    -1.10643374     0.12467734
     10      O    -2.48106507    -0.10131432    -0.15761151
     11      O    -2.23345283    -2.37509986    -0.19692066
     12      C    -3.40083513    -2.45972076    -1.07026158
     13      C    -0.74976530    -0.51454018     2.29936182
     14      O    -1.75517629    -0.68937654     2.96783615
     15      O     0.30059855     0.26145286     2.68592668
     16      C     0.16194589     0.85897293     4.01041270
     17      H     3.55392010    -0.79601039     1.52633621
     18      H     2.75047927    -0.21437282     0.04035266
     19      H     3.45344756    -1.86983279     0.08884490
     20      H     0.85323553    -4.16748868    -2.68124561
     21      H     2.08031764    -2.93326371    -3.08601701
     22      H     2.57734438    -4.44513495    -2.23866391
     23      H    -4.26346725    -1.98574972    -0.59216983
     24      H    -3.57011401    -3.52792892    -1.21573782
     25      H    -3.18393507    -1.96120570    -2.02050258
     26      H     1.07287706     1.44306836     4.15299652
     27      H    -0.72502388     1.49925403     4.04451777
     28      H     0.07524979     0.07574356     4.77012228

Total System Charge              0.00000

 *** GO1_GOStep9 ***

 Energy gradients wrt nuclear displacements
 ==========================================

     Atom      Cartesian (a.u./angstrom)
                 X         Y         Z
 ----------------------------------------
     1 C     0.006027  0.003632  0.000060
     2 O    -0.001594 -0.000145 -0.001822
     3 C    -0.000904  0.000147  0.001079
     4 C    -0.007229 -0.006574  0.001717
     5 O     0.003781  0.000573  0.000839
     6 O     0.001453  0.003280 -0.000611
     7 C     0.000120 -0.000377 -0.000610
     8 C    -0.003278 -0.000190  0.003591
     9 C    -0.002098  0.003591 -0.002774
    10 O     0.000377 -0.001598  0.000092
    11 O     0.000080 -0.000324  0.000950
    12 C     0.000309  0.000242 -0.000311
    13 C     0.004322 -0.005709  0.000078
    14 O    -0.001186  0.002625 -0.000948
    15 O    -0.000648 -0.000813 -0.000761
    16 C     0.000082  0.000092  0.000183
    17 H     0.000406  0.000874 -0.000413
    18 H     0.000222  0.000206 -0.000630
    19 H    -0.000135 -0.000012  0.000133
    20 H    -0.000230  0.000048  0.000112
    21 H     0.000066  0.000121  0.000048
    22 H     0.000105  0.000091 -0.000022
    23 H    -0.000078  0.000132  0.000275
    24 H    -0.000007 -0.000180  0.000076
    25 H    -0.000082  0.000246 -0.000212
    26 H     0.000023  0.000030 -0.000066
    27 H     0.000029  0.000056 -0.000037
    28 H     0.000066 -0.000064 -0.000014
 ----------------------------------------

 dE(predicted):    -0.43360E-03, dE(actual):    -0.20216E-03, Trust radius:    0.800000, all in a.u.
 
----------------------------------------------------------------------
Geometry Convergence after Step   9       (Hartree/Angstrom,Angstrom)
----------------------------------------------------------------------
current energy                               -6.04335675 Hartree
energy change                      -0.00020216     0.00028000    T
constrained gradient max            0.00722157     0.00010000    F
constrained gradient rms            0.00189526     0.00006667    F
gradient max                        0.00722157
gradient rms                        0.00189526
cart. step max                      0.21156922     0.01000000    F
cart. step rms                      0.06431856     0.00666667    F
 

--------
Geometry
--------
Formula: C9H12O7
Atoms
  Index Symbol   x (angstrom)   y (angstrom)   z (angstrom)
      1      C     0.60161848    -1.52019826     0.42216095
      2      O     1.68438974    -1.64018163     1.24331450
      3      C     2.98429930    -1.19098755     0.75671860
      4      C     0.69437143    -2.04710349    -0.99868730
      5      O     0.08341432    -1.58880603    -1.94569473
      6      O     1.57855345    -3.08093945    -1.08784693
      7      C     1.71693434    -3.66023005    -2.42199574
      8      C    -0.57115894    -1.03777820     0.90530234
      9      C    -1.86295917    -1.11290167     0.12789899
     10      O    -2.53354265    -0.13513377    -0.13970263
     11      O    -2.17807804    -2.39519938    -0.19919969
     12      C    -3.35554702    -2.53242738    -1.05057913
     13      C    -0.74785821    -0.46618372     2.28115371
     14      O    -1.70388081    -0.73290466     2.98941848
     15      O     0.26342511     0.37123432     2.64297252
     16      C     0.13613634     0.93459734     3.98274378
     17      H     3.58130665    -1.00757961     1.65299259
     18      H     2.88439759    -0.25970074     0.18800724
     19      H     3.45009856    -1.96813558     0.14176530
     20      H     0.75809727    -4.06967496    -2.75391512
     21      H     2.05163024    -2.89644916    -3.13080051
     22      H     2.46207638    -4.44947727    -2.31304472
     23      H    -4.23281138    -2.10639470    -0.55491568
     24      H    -3.47379849    -3.60646736    -1.20241211
     25      H    -3.18061121    -2.01707188    -2.00025003
     26      H     1.01226549     1.57401772     4.10405718
     27      H    -0.78800288     1.51568494     4.06146811
     28      H     0.12794412     0.13526217     4.73044002

Total System Charge              0.00000

 *** GO1_GOStep10 ***

 Energy gradients wrt nuclear displacements
 ==========================================

     Atom      Cartesian (a.u./angstrom)
                 X         Y         Z
 ----------------------------------------
     1 C     0.001057  0.004839 -0.002443
     2 O     0.000342 -0.005120 -0.000749
     3 C     0.001265  0.002034  0.001596
     4 C    -0.004911 -0.002723  0.002338
     5 O     0.003492 -0.001009 -0.000955
     6 O     0.000200  0.001974 -0.003796
     7 C    -0.001016 -0.000782  0.000277
     8 C     0.002661  0.001462  0.001947
     9 C    -0.006012 -0.006522  0.001141
    10 O     0.002321  0.000944 -0.000696
    11 O    -0.000736  0.001167  0.000331
    12 C     0.000859  0.000020  0.000521
    13 C    -0.003823  0.006118 -0.003201
    14 O     0.001521 -0.001503  0.001327
    15 O     0.000257 -0.001093  0.002747
    16 C    -0.000221 -0.001128 -0.000512
    17 H     0.000616  0.000851 -0.000173
    18 H     0.001340 -0.000334 -0.000026
    19 H     0.000396 -0.000104  0.000576
    20 H     0.000160 -0.000124 -0.000214
    21 H     0.000118  0.000186  0.000046
    22 H    -0.000091  0.000101 -0.000263
    23 H    -0.000170 -0.000040 -0.000067
    24 H     0.000037  0.000161 -0.000104
    25 H     0.000220  0.000077  0.000216
    26 H     0.000170 -0.000081 -0.000108
    27 H    -0.000118  0.000166 -0.000037
    28 H     0.000064  0.000463  0.000281
 ----------------------------------------

 dE(predicted):    -0.53813E-03, dE(actual):    -0.13983E-03, Trust radius:    0.800000, all in a.u.
 
----------------------------------------------------------------------
Geometry Convergence after Step  10       (Hartree/Angstrom,Angstrom)
----------------------------------------------------------------------
current energy                               -6.04349658 Hartree
energy change                      -0.00013983     0.00028000    T
constrained gradient max            0.00650641     0.00010000    F
constrained gradient rms            0.00196069     0.00006667    F
gradient max                        0.00650641
gradient rms                        0.00196069
cart. step max                      0.09899022     0.01000000    F
cart. step rms                      0.03391954     0.00666667    F
 

--------
Geometry
--------
Formula: C9H12O7
Atoms
  Index Symbol   x (angstrom)   y (angstrom)   z (angstrom)
      1      C     0.60404381    -1.54019609     0.43862746
      2      O     1.69254211    -1.66131638     1.25272065
      3      C     2.98654638    -1.24160852     0.72718731
      4      C     0.70657843    -2.04358598    -0.98931184
      5      O     0.09686041    -1.57203595    -1.93183128
      6      O     1.57843988    -3.08853162    -1.07749748
      7      C     1.73952833    -3.64736075    -2.41754461
      8      C    -0.56591342    -1.06229907     0.92615554
      9      C    -1.85553270    -1.11764514     0.14799122
     10      O    -2.55292214    -0.14144412    -0.05278127
     11      O    -2.15488374    -2.38827561    -0.23537780
     12      C    -3.35683847    -2.51185055    -1.05476617
     13      C    -0.73485783    -0.50380157     2.30881804
     14      O    -1.67794724    -0.78965175     3.02698544
     15      O     0.23298296     0.39826529     2.63319684
     16      C     0.10054382     0.97988017     3.96488104
     17      H     3.61982600    -1.09405501     1.60474273
     18      H     2.89059134    -0.29665127     0.18073846
     19      H     3.40641373    -2.01997184     0.08085436
     20      H     0.78305222    -4.03892012    -2.77676115
     21      H     2.09934992    -2.87721678    -3.10682078
     22      H     2.47178223    -4.44809995    -2.30483372
     23      H    -4.22573537    -2.12753074    -0.51273404
     24      H    -3.45856471    -3.58026636    -1.25149868
     25      H    -3.22310682    -1.95096528    -1.98503156
     26      H     0.93871222     1.67300794     4.05526423
     27      H    -0.85521581     1.50551058     4.05373040
     28      H     0.15643444     0.19548648     4.72626668

Total System Charge              0.00000

 *** GO1_GOStep11 ***

 Energy gradients wrt nuclear displacements
 ==========================================

     Atom      Cartesian (a.u./angstrom)
                 X         Y         Z
 ----------------------------------------
     1 C    -0.002722  0.004119 -0.000164
     2 O     0.001136 -0.005270 -0.001112
     3 C    -0.000920  0.002036 -0.000029
     4 C     0.002439 -0.000741  0.001966
     5 O    -0.002204  0.000378 -0.001912
     6 O     0.000980  0.000523  0.000097
     7 C     0.000050  0.000023  0.000465
     8 C     0.000916  0.002549  0.002009
     9 C    -0.000878 -0.005724 -0.003457
    10 O    -0.000153  0.001920  0.001334
    11 O     0.000645  0.001755  0.000674
    12 C    -0.000389 -0.000308  0.000766
    13 C     0.004540 -0.003133  0.000691
    14 O    -0.002917  0.001688 -0.000333
    15 O    -0.001954  0.002672  0.000753
    16 C    -0.000008 -0.001183 -0.000793
    17 H     0.000357  0.000433 -0.000080
    18 H     0.000745 -0.000526 -0.000025
    19 H     0.000097 -0.001456 -0.000621
    20 H     0.000001 -0.000124 -0.000098
    21 H     0.000058 -0.000026 -0.000126
    22 H    -0.000093  0.000058 -0.000081
    23 H    -0.000112 -0.000321 -0.000303
    24 H    -0.000040  0.000169 -0.000091
    25 H     0.000453  0.000123  0.000424
    26 H     0.000076  0.000003 -0.000041
    27 H    -0.000085  0.000188  0.000097
    28 H    -0.000019  0.000174 -0.000009
 ----------------------------------------

 dE(predicted):    -0.36349E-03, dE(actual):    -0.25888E-03, Trust radius:    0.800000, all in a.u.
 
----------------------------------------------------------------------
Geometry Convergence after Step  11       (Hartree/Angstrom,Angstrom)
----------------------------------------------------------------------
current energy                               -6.04375546 Hartree
energy change                      -0.00025888     0.00028000    T
constrained gradient max            0.00570981     0.00010000    F
constrained gradient rms            0.00157236     0.00006667    F
gradient max                        0.00570981
gradient rms                        0.00157236
cart. step max                      0.13844262     0.01000000    F
cart. step rms                      0.05181124     0.00666667    F
 

--------
Geometry
--------
Formula: C9H12O7
Atoms
  Index Symbol   x (angstrom)   y (angstrom)   z (angstrom)
      1      C     0.57707800    -1.56896427     0.45981226
      2      O     1.67545844    -1.62269821     1.26796934
      3      C     2.92879101    -1.14131720     0.70060042
      4      C     0.69936242    -2.08219042    -0.96173651
      5      O     0.12059880    -1.60055027    -1.91826389
      6      O     1.55123244    -3.14472727    -1.01808170
      7      C     1.75837029    -3.70083309    -2.35244035
      8      C    -0.59613263    -1.09657711     0.93815323
      9      C    -1.87998204    -1.12505823     0.15616450
     10      O    -2.58398948    -0.14596467    -0.00484669
     11      O    -2.16767418    -2.37576762    -0.29432205
     12      C    -3.36671976    -2.46951445    -1.12267012
     13      C    -0.73928105    -0.52908857     2.32006779
     14      O    -1.62623126    -0.86010927     3.08703798
     15      O     0.23686693     0.37478499     2.60959643
     16      C     0.16466483     0.94310752     3.95211630
     17      H     3.59483437    -0.99716444     1.55380493
     18      H     2.76803844    -0.18353338     0.19191933
     19      H     3.34784262    -1.88152922     0.01045574
     20      H     0.80988445    -4.07148499    -2.75292875
     21      H     2.16217476    -2.93553575    -3.02251972
     22      H     2.46899371    -4.51677358    -2.21231679
     23      H    -4.23726073    -2.10790632    -0.56769590
     24      H    -3.46554470    -3.53008714    -1.35975183
     25      H    -3.23252487    -1.87375548    -2.03105632
     26      H     0.99938027     1.64396481     4.00912102
     27      H    -0.79089560     1.45747538     4.09252473
     28      H     0.26537452     0.15066824     4.70065661

Total System Charge              0.00000

 *** GO1_GOStep12 ***

 Energy gradients wrt nuclear displacements
 ==========================================

     Atom      Cartesian (a.u./angstrom)
                 X         Y         Z
 ----------------------------------------
     1 C    -0.002365 -0.001007  0.001726
     2 O    -0.000690  0.000638  0.000987
     3 C    -0.000729  0.000383 -0.001182
     4 C     0.003861 -0.000046  0.000332
     5 O    -0.004270  0.001346 -0.000395
     6 O     0.000165 -0.000810  0.001737
     7 C     0.000972  0.001204  0.000794
     8 C     0.004050 -0.002836  0.001994
     9 C    -0.000476 -0.000334 -0.002687
    10 O    -0.000502 -0.000160  0.000159
    11 O     0.001847  0.003072  0.000449
    12 C    -0.000954 -0.000191  0.000303
    13 C    -0.004159  0.006102 -0.004230
    14 O     0.001553 -0.002512  0.001033
    15 O     0.002301 -0.003474  0.000073
    16 C     0.000112 -0.000285 -0.000662
    17 H    -0.000102  0.000651  0.000131
    18 H    -0.000268 -0.000143 -0.000231
    19 H    -0.000362 -0.001008 -0.000402
    20 H    -0.000307 -0.000085  0.000183
    21 H     0.000021 -0.000212 -0.000176
    22 H     0.000008 -0.000105  0.000171
    23 H     0.000023 -0.000286 -0.000052
    24 H    -0.000020 -0.000005  0.000005
    25 H     0.000230  0.000114  0.000157
    26 H     0.000153  0.000096  0.000118
    27 H    -0.000057 -0.000013 -0.000224
    28 H    -0.000035 -0.000091 -0.000110
 ----------------------------------------

 dE(predicted):    -0.35064E-03, dE(actual):    -0.18696E-03, Trust radius:    0.800000, all in a.u.
 
----------------------------------------------------------------------
Geometry Convergence after Step  12       (Hartree/Angstrom,Angstrom)
----------------------------------------------------------------------
current energy                               -6.04394242 Hartree
energy change                      -0.00018696     0.00028000    T
constrained gradient max            0.00606640     0.00010000    F
constrained gradient rms            0.00157492     0.00006667    F
gradient max                        0.00606640
gradient rms                        0.00157492
cart. step max                      0.18869906     0.01000000    F
cart. step rms                      0.05850913     0.00666667    F
 

--------
Geometry
--------
Formula: C9H12O7
Atoms
  Index Symbol   x (angstrom)   y (angstrom)   z (angstrom)
      1      C     0.59044676    -1.61821366     0.47433704
      2      O     1.68720202    -1.68380225     1.28606799
      3      C     2.92068303    -1.11760171     0.75461835
      4      C     0.71994738    -2.08803805    -0.96150689
      5      O     0.21888454    -1.52417849    -1.91516805
      6      O     1.49170689    -3.20734422    -1.03570142
      7      C     1.69543013    -3.72868817    -2.38396707
      8      C    -0.58060949    -1.15371882     0.96557116
      9      C    -1.87383105    -1.16821033     0.20513782
     10      O    -2.58865148    -0.19055945     0.08870745
     11      O    -2.14938059    -2.39642830    -0.30936918
     12      C    -3.33705225    -2.45592775    -1.15665528
     13      C    -0.68809961    -0.59807957     2.35766866
     14      O    -1.52650800    -0.96368610     3.16025327
     15      O     0.21522425     0.39496258     2.57845971
     16      C     0.14677338     1.00537003     3.90292438
     17      H     3.60716153    -1.07645554     1.60250558
     18      H     2.73303981    -0.10392605     0.38061839
     19      H     3.33190841    -1.75505137    -0.03541813
     20      H     0.73442066    -4.01567558    -2.82168965
     21      H     2.17071679    -2.97057981    -3.01427852
     22      H     2.34242745    -4.59819389    -2.25747656
     23      H    -4.21226220    -2.10676373    -0.60087422
     24      H    -3.43870237    -3.50798680    -1.42832998
     25      H    -3.18877361    -1.83290619    -2.04449632
     26      H     0.91532459     1.78029692     3.89915052
     27      H    -0.84522331     1.43662850     4.06788324
     28      H     0.35050635     0.25362780     4.67239771

Total System Charge              0.00000

 *** GO1_GOStep13 ***

 Energy gradients wrt nuclear displacements
 ==========================================

     Atom      Cartesian (a.u./angstrom)
                 X         Y         Z
 ----------------------------------------
     1 C     0.003274 -0.002982  0.001096
     2 O    -0.001136  0.000637  0.000431
     3 C     0.000920 -0.000172 -0.001395
     4 C    -0.000046  0.001710 -0.001402
     5 O     0.000367 -0.000042  0.002075
     6 O    -0.001567 -0.000291 -0.000582
     7 C     0.000162  0.001229  0.001147
     8 C    -0.002048  0.002134 -0.001417
     9 C    -0.001923 -0.003052  0.000608
    10 O     0.000914 -0.001090 -0.001235
    11 O    -0.001182  0.004484  0.001761
    12 C     0.000258  0.000189 -0.000614
    13 C     0.005398 -0.003236  0.002091
    14 O     0.000159  0.001670 -0.002821
    15 O    -0.002153 -0.002010 -0.000362
    16 C     0.000008  0.000807 -0.001039
    17 H    -0.000537  0.001058  0.000374
    18 H    -0.000547  0.000265  0.000004
    19 H    -0.000231  0.000179  0.000817
    20 H    -0.000107 -0.000139  0.000254
    21 H    -0.000023 -0.000166 -0.000009
    22 H     0.000077 -0.000360  0.000058
    23 H     0.000081 -0.000167  0.000370
    24 H    -0.000043 -0.000106  0.000077
    25 H    -0.000209 -0.000209 -0.000284
    26 H    -0.000047  0.000077  0.000087
    27 H     0.000121  0.000039  0.000038
    28 H     0.000062 -0.000455 -0.000129
 ----------------------------------------

 dE(predicted):    -0.41832E-03, dE(actual):    -0.35187E-03, Trust radius:    0.800000, all in a.u.
 
----------------------------------------------------------------------
Geometry Convergence after Step  13       (Hartree/Angstrom,Angstrom)
----------------------------------------------------------------------
current energy                               -6.04429429 Hartree
energy change                      -0.00035187     0.00028000    F
constrained gradient max            0.00538364     0.00010000    F
constrained gradient rms            0.00138941     0.00006667    F
gradient max                        0.00538364
gradient rms                        0.00138941
cart. step max                      0.19664153     0.01000000    F
cart. step rms                      0.05362208     0.00666667    F
 

--------
Geometry
--------
Formula: C9H12O7
Atoms
  Index Symbol   x (angstrom)   y (angstrom)   z (angstrom)
      1      C     0.59259030    -1.59437950     0.47067399
      2      O     1.68571150    -1.69618529     1.28871400
      3      C     2.94608374    -1.17640187     0.77081572
      4      C     0.72289354    -2.06180960    -0.96817306
      5      O     0.26564318    -1.47046562    -1.92672178
      6      O     1.45555841    -3.20791169    -1.04511958
      7      C     1.64518297    -3.72763208    -2.39657888
      8      C    -0.57439118    -1.13799640     0.97461600
      9      C    -1.87525987    -1.17923405     0.23299377
     10      O    -2.65025665    -0.24091300     0.19145252
     11      O    -2.09121663    -2.39274273    -0.34779899
     12      C    -3.28765636    -2.46756176    -1.18115437
     13      C    -0.67573204    -0.59088331     2.37436133
     14      O    -1.43292147    -1.03319620     3.21788208
     15      O     0.14798921     0.47913981     2.55440952
     16      C     0.10272268     1.07246553     3.88847020
     17      H     3.65553977    -1.27309707     1.59459402
     18      H     2.83036052    -0.12034027     0.50052949
     19      H     3.28699440    -1.76491239    -0.08816235
     20      H     0.67717653    -3.98098918    -2.83926792
     21      H     2.14571452    -2.98082206    -3.02081494
     22      H     2.26407766    -4.61777303    -2.27482541
     23      H    -4.16963891    -2.18603692    -0.59874736
     24      H    -3.34469739    -3.50888787    -1.50219419
     25      H    -3.18167856    -1.79652570    -2.03937753
     26      H     0.79350056     1.91625838     3.84727892
     27      H    -0.91337509     1.40774112     4.11670601
     28      H     0.42179465     0.33996275     4.63680880

Total System Charge              0.00000

 *** GO1_GOStep14 ***

 Energy gradients wrt nuclear displacements
 ==========================================

     Atom      Cartesian (a.u./angstrom)
                 X         Y         Z
 ----------------------------------------
     1 C    -0.001980  0.003776 -0.002054
     2 O    -0.000027 -0.003919  0.002275
     3 C     0.001499  0.000863 -0.001375
     4 C    -0.001924  0.000423  0.000598
     5 O     0.002007 -0.001335  0.000968
     6 O     0.000165  0.000516 -0.002422
     7 C    -0.000632  0.000454  0.000991
     8 C     0.001980  0.001212 -0.000395
     9 C    -0.000463 -0.003970 -0.002089
    10 O     0.000320  0.000753 -0.000157
    11 O    -0.000573  0.001691  0.002107
    12 C    -0.000123  0.000146 -0.000259
    13 C     0.002263 -0.001812  0.000178
    14 O    -0.000932 -0.000026  0.000262
    15 O    -0.001354  0.000898  0.000444
    16 C     0.000257  0.000004 -0.000475
    17 H    -0.000464  0.000620  0.000026
    18 H     0.000250  0.000034  0.000290
    19 H    -0.000131 -0.000170  0.000698
    20 H     0.000177 -0.000156 -0.000089
    21 H    -0.000109 -0.000043  0.000084
    22 H    -0.000015 -0.000082 -0.000245
    23 H     0.000190 -0.000145  0.000140
    24 H    -0.000017  0.000132  0.000263
    25 H    -0.000201 -0.000175  0.000022
    26 H    -0.000142  0.000086 -0.000019
    27 H     0.000079  0.000084  0.000084
    28 H    -0.000103  0.000139  0.000150
 ----------------------------------------

 dE(predicted):    -0.33966E-03, dE(actual):    -0.27201E-03, Trust radius:    0.800000, all in a.u.
 
----------------------------------------------------------------------
Geometry Convergence after Step  14       (Hartree/Angstrom,Angstrom)
----------------------------------------------------------------------
current energy                               -6.04456630 Hartree
energy change                      -0.00027201     0.00028000    T
constrained gradient max            0.00396211     0.00010000    F
constrained gradient rms            0.00117061     0.00006667    F
gradient max                        0.00396211
gradient rms                        0.00117061
cart. step max                      0.17718188     0.01000000    F
cart. step rms                      0.06078625     0.00666667    F
 

--------
Geometry
--------
Formula: C9H12O7
Atoms
  Index Symbol   x (angstrom)   y (angstrom)   z (angstrom)
      1      C     0.57539252    -1.60665799     0.49130136
      2      O     1.68629197    -1.67614516     1.29143627
      3      C     2.92186380    -1.13338144     0.73906631
      4      C     0.70884374    -2.07996298    -0.94645153
      5      O     0.29744712    -1.46937707    -1.91422776
      6      O     1.40110938    -3.25187739    -1.00675212
      7      C     1.60599947    -3.77897187    -2.35350391
      8      C    -0.59043491    -1.16730254     1.01252069
      9      C    -1.89838518    -1.22108883     0.29275628
     10      O    -2.72889850    -0.33117977     0.35005956
     11      O    -2.05143111    -2.38339505    -0.40539232
     12      C    -3.22571261    -2.42539131    -1.27154411
     13      C    -0.66586866    -0.60964519     2.41290278
     14      O    -1.33175971    -1.10151008     3.30336639
     15      O     0.09396362     0.51425734     2.53956908
     16      C     0.10890732     1.09715314     3.87957468
     17      H     3.68318867    -1.32154723     1.49806110
     18      H     2.81098171    -0.05491838     0.57650796
     19      H     3.19331041    -1.64393729    -0.19236495
     20      H     0.64104492    -3.99698225    -2.82102202
     21      H     2.14921442    -3.05110432    -2.96453363
     22      H     2.18891708    -4.69079188    -2.21615539
     23      H    -4.12977465    -2.21911640    -0.69151246
     24      H    -3.24155233    -3.43743990    -1.67937607
     25      H    -3.12085041    -1.68230962    -2.06838996
     26      H     0.73112613     1.98948086     3.79389951
     27      H    -0.90829918     1.35544591     4.18837641
     28      H     0.53807499     0.38656669     4.59319786

Total System Charge              0.00000

 *** GO1_GOStep15 ***

 Energy gradients wrt nuclear displacements
 ==========================================

     Atom      Cartesian (a.u./angstrom)
                 X         Y         Z
 ----------------------------------------
     1 C    -0.003111  0.002851 -0.003783
     2 O     0.001510 -0.003838  0.003558
     3 C     0.000821  0.002057 -0.002010
     4 C    -0.001522 -0.000650  0.002994
     5 O    -0.000055 -0.000536 -0.000830
     6 O     0.001083  0.000126 -0.002093
     7 C    -0.000369  0.000170  0.001057
     8 C     0.003870  0.000440 -0.000269
     9 C    -0.000743 -0.002532 -0.002147
    10 O     0.000193  0.000222  0.001040
    11 O     0.000910  0.000261  0.001707
    12 C     0.000187  0.000939 -0.001267
    13 C    -0.002308  0.001435 -0.000392
    14 O     0.000243 -0.000410  0.001238
    15 O    -0.001544  0.000779 -0.000191
    16 C     0.001060 -0.000578  0.000059
    17 H    -0.000344  0.000172 -0.000073
    18 H     0.000420  0.000209  0.000763
    19 H    -0.000140 -0.000833  0.000092
    20 H     0.000120 -0.000231 -0.000150
    21 H    -0.000073  0.000069  0.000040
    22 H     0.000019 -0.000030 -0.000209
    23 H     0.000093  0.000212  0.000233
    24 H     0.000050 -0.000281  0.000211
    25 H    -0.000319 -0.000206  0.000223
    26 H    -0.000057 -0.000113  0.000037
    27 H     0.000004 -0.000026 -0.000051
    28 H     0.000002  0.000322  0.000215
 ----------------------------------------

 dE(predicted):    -0.21015E-03, dE(actual):    -0.10456E-03, Trust radius:    0.800000, all in a.u.
 
----------------------------------------------------------------------
Geometry Convergence after Step  15       (Hartree/Angstrom,Angstrom)
----------------------------------------------------------------------
current energy                               -6.04467086 Hartree
energy change                      -0.00010456     0.00028000    T
constrained gradient max            0.00387135     0.00010000    F
constrained gradient rms            0.00129434     0.00006667    F
gradient max                        0.00387135
gradient rms                        0.00129434
cart. step max                      0.05730618     0.01000000    F
cart. step rms                      0.01646861     0.00666667    F
 

--------
Geometry
--------
Formula: C9H12O7
Atoms
  Index Symbol   x (angstrom)   y (angstrom)   z (angstrom)
      1      C     0.57913607    -1.60641987     0.49122493
      2      O     1.68956830    -1.66226174     1.28985388
      3      C     2.92799590    -1.13840151     0.72852322
      4      C     0.71828113    -2.07363593    -0.94799179
      5      O     0.31238987    -1.45683382    -1.91432551
      6      O     1.39918519    -3.25189335    -1.00639806
      7      C     1.61570441    -3.77275724    -2.35418015
      8      C    -0.58882866    -1.16379927     1.00764608
      9      C    -1.89405624    -1.20989307     0.28248887
     10      O    -2.71795750    -0.31360174     0.32810392
     11      O    -2.05234409    -2.37639502    -0.40880388
     12      C    -3.24148417    -2.43391785    -1.25315842
     13      C    -0.66464513    -0.60999399     2.40897378
     14      O    -1.35702840    -1.08645690     3.28702996
     15      O     0.12374313     0.49179346     2.55230027
     16      C     0.10234297     1.09005606     3.88529937
     17      H     3.68754594    -1.31045953     1.49334712
     18      H     2.81965410    -0.06423479     0.53784661
     19      H     3.20022307    -1.67029124    -0.19053018
     20      H     0.65395736    -3.97243986    -2.83635598
     21      H     2.17866121    -3.04924619    -2.95243911
     22      H     2.18267918    -4.69419408    -2.21427205
     23      H    -4.13818978    -2.24031408    -0.65747794
     24      H    -3.25108531    -3.44562954    -1.66200527
     25      H    -3.16004226    -1.68906305    -2.05127246
     26      H     0.75466430     1.96216273     3.81541504
     27      H    -0.91812942     1.38235173     4.15005342
     28      H     0.48076881     0.37463969     4.62247433

Total System Charge              0.00000

 *** GO1_GOStep16 ***

 Energy gradients wrt nuclear displacements
 ==========================================

     Atom      Cartesian (a.u./angstrom)
                 X         Y         Z
 ----------------------------------------
     1 C    -0.001534 -0.001117 -0.001804
     2 O     0.000638 -0.000969  0.001972
     3 C     0.000847  0.000875 -0.001319
     4 C     0.001077 -0.000005  0.001809
     5 O    -0.001508  0.000257 -0.001035
     6 O     0.000285 -0.000422 -0.000619
     7 C     0.000070  0.000635  0.000907
     8 C     0.000792  0.000893 -0.000492
     9 C    -0.000708 -0.000942 -0.001137
    10 O     0.000306  0.000204  0.000299
    11 O     0.001064  0.001103  0.000358
    12 C    -0.000879 -0.000282 -0.000239
    13 C    -0.001614  0.000742  0.001213
    14 O     0.001410 -0.000135 -0.000275
    15 O     0.000319 -0.000660  0.000209
    16 C    -0.000370  0.000308 -0.000212
    17 H     0.000032  0.000013  0.000009
    18 H    -0.000018  0.000078  0.000278
    19 H    -0.000227 -0.000335 -0.000001
    20 H    -0.000118 -0.000113 -0.000081
    21 H    -0.000070  0.000097 -0.000116
    22 H     0.000042 -0.000042 -0.000038
    23 H    -0.000057  0.000061 -0.000037
    24 H    -0.000023 -0.000161  0.000040
    25 H     0.000248 -0.000052  0.000225
    26 H    -0.000048  0.000013  0.000005
    27 H    -0.000032  0.000087  0.000119
    28 H     0.000075 -0.000131 -0.000037
 ----------------------------------------

 dE(predicted):    -0.11091E-03, dE(actual):    -0.11377E-03, Trust radius:    0.800000, all in a.u.
 
----------------------------------------------------------------------
Geometry Convergence after Step  16       (Hartree/Angstrom,Angstrom)
----------------------------------------------------------------------
current energy                               -6.04478463 Hartree
energy change                      -0.00011377     0.00028000    T
constrained gradient max            0.00199568     0.00010000    F
constrained gradient rms            0.00069875     0.00006667    F
gradient max                        0.00199568
gradient rms                        0.00069875
cart. step max                      0.04857780     0.01000000    F
cart. step rms                      0.01682615     0.00666667    F
 

--------
Geometry
--------
Formula: C9H12O7
Atoms
  Index Symbol   x (angstrom)   y (angstrom)   z (angstrom)
      1      C     0.57624798    -1.59204386     0.48948541
      2      O     1.68136945    -1.64325199     1.29271400
      3      C     2.92475128    -1.12830316     0.73725303
      4      C     0.72721451    -2.05534581    -0.95043055
      5      O     0.35414599    -1.42271987    -1.91890742
      6      O     1.37744822    -3.25107490    -1.00185270
      7      C     1.60442881    -3.77240451    -2.34871852
      8      C    -0.59668024    -1.15772881     1.00071277
      9      C    -1.89956019    -1.21158217     0.27335498
     10      O    -2.73011363    -0.32160787     0.31358218
     11      O    -2.04583449    -2.37889645    -0.42135358
     12      C    -3.24319131    -2.45402162    -1.25199319
     13      C    -0.67437032    -0.60005862     2.39941978
     14      O    -1.38936061    -1.05727085     3.26975089
     15      O     0.13695659     0.48444773     2.54935543
     16      C     0.12358402     1.07690419     3.88515551
     17      H     3.67934316    -1.29849086     1.50741351
     18      H     2.82056860    -0.05521361     0.53810757
     19      H     3.20187817    -1.66432631    -0.17789969
     20      H     0.64653031    -3.93574987    -2.85159974
     21      H     2.20451068    -3.06576451    -2.93077102
     22      H     2.13629933    -4.71338375    -2.20191110
     23      H    -4.13671349    -2.28889187    -0.64311771
     24      H    -3.23428116    -3.46071848    -1.67279041
     25      H    -3.18968170    -1.69841855    -2.04249914
     26      H     0.79415161     1.93558488     3.82118499
     27      H    -0.89161462     1.38874163     4.14758625
     28      H     0.48468307     0.35045985     4.62013848

Total System Charge              0.00000

 *** GO1_GOStep17 ***

 Energy gradients wrt nuclear displacements
 ==========================================

     Atom      Cartesian (a.u./angstrom)
                 X         Y         Z
 ----------------------------------------
     1 C    -0.000768 -0.000495  0.000089
     2 O    -0.000399 -0.000027  0.000925
     3 C     0.000648 -0.000075 -0.000400
     4 C     0.000480  0.001128 -0.000031
     5 O    -0.000982 -0.000276  0.000017
     6 O    -0.000062 -0.000697  0.000400
     7 C     0.000243  0.000467  0.000204
     8 C     0.000264 -0.000453 -0.001611
     9 C    -0.001149 -0.000813  0.000462
    10 O     0.000639  0.000349 -0.000422
    11 O     0.000776  0.001318 -0.000263
    12 C    -0.001175 -0.000657  0.000484
    13 C     0.000523  0.000086  0.001842
    14 O     0.000885 -0.000059 -0.001003
    15 O     0.000158 -0.000543 -0.000631
    16 C    -0.000324  0.000175  0.000362
    17 H     0.000203 -0.000034  0.000011
    18 H    -0.000301  0.000035 -0.000064
    19 H    -0.000090  0.000270  0.000114
    20 H    -0.000071  0.000047 -0.000080
    21 H    -0.000078  0.000109 -0.000185
    22 H     0.000058  0.000044 -0.000007
    23 H    -0.000035 -0.000028 -0.000094
    24 H     0.000015  0.000058  0.000010
    25 H     0.000465  0.000048  0.000091
    26 H    -0.000020  0.000082 -0.000088
    27 H     0.000038 -0.000029 -0.000072
    28 H     0.000058 -0.000030 -0.000059
 ----------------------------------------

 dE(predicted):    -0.59592E-04, dE(actual):    -0.42309E-04, Trust radius:    0.800000, all in a.u.
 
----------------------------------------------------------------------
Geometry Convergence after Step  17       (Hartree/Angstrom,Angstrom)
----------------------------------------------------------------------
current energy                               -6.04482694 Hartree
energy change                      -0.00004231     0.00028000    T
constrained gradient max            0.00182457     0.00010000    F
constrained gradient rms            0.00052482     0.00006667    F
gradient max                        0.00182457
gradient rms                        0.00052482
cart. step max                      0.21046922     0.01000000    F
cart. step rms                      0.06106734     0.00666667    F
 

--------
Geometry
--------
Formula: C9H12O7
Atoms
  Index Symbol   x (angstrom)   y (angstrom)   z (angstrom)
      1      C     0.57691924    -1.52278310     0.48638411
      2      O     1.67432632    -1.54484725     1.29211134
      3      C     2.93247894    -1.08956369     0.72780561
      4      C     0.75784739    -1.98682134    -0.95213171
      5      O     0.49384851    -1.31367960    -1.92739961
      6      O     1.29777876    -3.23633660    -0.98091662
      7      C     1.51316961    -3.78889832    -2.31987063
      8      C    -0.61212839    -1.11328819     0.98569011
      9      C    -1.90481402    -1.21204613     0.24877497
     10      O    -2.77824709    -0.36470582     0.28352494
     11      O    -1.98656590    -2.37868603    -0.46522820
     12      C    -3.19183753    -2.52389183    -1.27228204
     13      C    -0.71338588    -0.54844407     2.37804632
     14      O    -1.49778768    -0.95297907     3.21522397
     15      O     0.16517609     0.47675701     2.56958861
     16      C     0.16541008     1.03190613     3.92131667
     17      H     3.67866938    -1.24850514     1.50846861
     18      H     2.85789204    -0.02439742     0.47892496
     19      H     3.20349345    -1.66543102    -0.16502425
     20      H     0.56167029    -3.84113338    -2.85708160
     21      H     2.21329639    -3.16047572    -2.87920220
     22      H     1.92583011    -4.78407901    -2.15050448
     23      H    -4.07995616    -2.46484066    -0.63644496
     24      H    -3.10639212    -3.50789874    -1.73563031
     25      H    -3.22909726    -1.73616846    -2.03222473
     26      H     0.89454992     1.84365646     3.89412150
     27      H    -0.83139339     1.40444303     4.17465344
     28      H     0.46195889     0.26200796     4.64067619

Total System Charge              0.00000

 *** GO1_GOStep18 ***

 Energy gradients wrt nuclear displacements
 ==========================================

     Atom      Cartesian (a.u./angstrom)
                 X         Y         Z
 ----------------------------------------
     1 C     0.001897 -0.001107  0.002750
     2 O    -0.002265  0.002446 -0.002303
     3 C    -0.001148 -0.001707  0.002881
     4 C     0.001037  0.004133 -0.003093
     5 O    -0.000006 -0.001275  0.002211
     6 O     0.000364 -0.000689  0.002043
     7 C     0.000324 -0.001493 -0.001302
     8 C    -0.001827 -0.002155 -0.003082
     9 C    -0.001169 -0.000210  0.002638
    10 O     0.000261  0.001281 -0.001317
    11 O     0.000008  0.001360 -0.000974
    12 C    -0.000798 -0.001517  0.002158
    13 C     0.002447  0.000083  0.002158
    14 O    -0.000364  0.000285 -0.000997
    15 O     0.000408 -0.000769 -0.002268
    16 C     0.000167 -0.000446  0.001460
    17 H     0.000559 -0.000346 -0.000121
    18 H    -0.000816 -0.000266 -0.000968
    19 H     0.000187  0.001398 -0.000141
    20 H    -0.000008  0.000156 -0.000181
    21 H    -0.000019 -0.000062 -0.000222
    22 H    -0.000113  0.000328  0.000138
    23 H     0.000199 -0.000130 -0.000154
    24 H     0.000127  0.000550  0.000036
    25 H     0.000438  0.000264 -0.000343
    26 H     0.000167  0.000006 -0.000189
    27 H    -0.000054 -0.000253 -0.000503
    28 H    -0.000002  0.000134 -0.000313
 ----------------------------------------

 dE(predicted):    -0.17573E-03, dE(actual):     0.86598E-04, Trust radius:    0.091739, all in a.u.
 
----------------------------------------------------------------------
Geometry Convergence after Step  18       (Hartree/Angstrom,Angstrom)
----------------------------------------------------------------------
current energy                               -6.04474034 Hartree
energy change                       0.00008660     0.00028000    T
constrained gradient max            0.00414268     0.00010000    F
constrained gradient rms            0.00133555     0.00006667    F
gradient max                        0.00414268
gradient rms                        0.00133555
cart. step max                      0.04952346     0.01000000    F
cart. step rms                      0.02160410     0.00666667    F
 

--------
Geometry
--------
Formula: C9H12O7
Atoms
  Index Symbol   x (angstrom)   y (angstrom)   z (angstrom)
      1      C     0.58176250    -1.52403685     0.49681282
      2      O     1.68871610    -1.54311956     1.29055255
      3      C     2.94373183    -1.10314583     0.70643630
      4      C     0.75077589    -1.98701283    -0.94411430
      5      O     0.50114078    -1.30475232    -1.91705098
      6      O     1.26996854    -3.24476593    -0.97927328
      7      C     1.48120324    -3.78927225    -2.32197316
      8      C    -0.60486918    -1.12203097     1.00768103
      9      C    -1.89889551    -1.23101760     0.27507343
     10      O    -2.78875764    -0.40202092     0.33068142
     11      O    -1.96307814    -2.38474145    -0.46315028
     12      C    -3.15402493    -2.51785147    -1.29335193
     13      C    -0.70647089    -0.55742078     2.40025604
     14      O    -1.47665352    -0.97540949     3.24421794
     15      O     0.15073151     0.48835261     2.58192508
     16      C     0.14094153     1.05899524     3.92727403
     17      H     3.69810598    -1.26616974     1.47818596
     18      H     2.87796663    -0.03835742     0.45364310
     19      H     3.19727436    -1.68735258    -0.18628193
     20      H     0.53099555    -3.82052577    -2.86291233
     21      H     2.19405616    -3.16778018    -2.87283609
     22      H     1.87630665    -4.79284880    -2.16003308
     23      H    -4.05279579    -2.47400553    -0.67133351
     24      H    -3.05780763    -3.49255805    -1.77410420
     25      H    -3.18217072    -1.71569617    -2.03832853
     26      H     0.85314655     1.88521243     3.88976948
[...]
         ----                  ---------
     1)   C                  14.68664432
     2)   O                  22.33342858
     3)   C                  14.71492005
     4)   C                  14.63850671
     5)   O                  22.38909657
     6)   O                  22.33188386
     7)   C                  14.71565930
     8)   C                  14.75834478
     9)   C                  14.66057960
    10)   O                  22.41609540
    11)   O                  22.35301821
    12)   C                  14.73010378
    13)   C                  14.66212448
    14)   O                  22.41351521
    15)   O                  22.35622689
    16)   C                  14.73685401
    17)   H                   1.08243143
    18)   H                   1.08505509
    19)   H                   1.08158877
    20)   H                   1.08338419
    21)   H                   1.08344472
    22)   H                   1.08184609
    23)   H                   1.09973468
    24)   H                   1.09574447
    25)   H                   1.10064763
    26)   H                   1.10249931
    27)   H                   1.10529434
    28)   H                   1.10488385
 Mulliken charges used for AMS results%charges...


    =====================
     CALCULATION RESULTS
    =====================

Energy (hartree)            -6.04741231

Gradients (hartree/bohr)
  Index   Atom            d/dx            d/dy            d/dz
      1      C   -0.0000146890   -0.0000393839    0.0000258077
      2      O    0.0000060789    0.0000464262   -0.0000254880
      3      C   -0.0000084243   -0.0000113836    0.0000250124
      4      C    0.0000098828    0.0000008689   -0.0000080218
      5      O    0.0000075100   -0.0000345539    0.0000091114
      6      O    0.0000078545   -0.0000126527    0.0000292295
      7      C   -0.0000012955   -0.0000344964    0.0000200725
      8      C    0.0000047439   -0.0000049869   -0.0000050842
      9      C    0.0000225621    0.0000167953   -0.0000275201
     10      O   -0.0000139457    0.0000303166    0.0000007578
     11      O    0.0000173064   -0.0000120765    0.0000148389
     12      C   -0.0000164160   -0.0000200610   -0.0000185858
     13      C   -0.0000462134   -0.0000005936   -0.0000034595
     14      O    0.0000024764    0.0000390104    0.0000055491
     15      O    0.0000098419    0.0000326351   -0.0000315521
     16      C   -0.0000192948    0.0000344985   -0.0000256852
     17      H    0.0000026618    0.0000102524   -0.0000003574
     18      H    0.0000025394   -0.0000122320   -0.0000008056
     19      H   -0.0000003873    0.0000009419    0.0000208853
     20      H    0.0000043581   -0.0000379688    0.0000268072
     21      H    0.0000025827   -0.0000342064    0.0000290657
     22      H    0.0000077310   -0.0000279070    0.0000428004
     23      H    0.0000032774   -0.0000108662    0.0000111771
     24      H    0.0000073103   -0.0000326432    0.0000054213
     25      H    0.0000070692   -0.0000204456   -0.0000102748
     26      H   -0.0000103193    0.0000367464   -0.0000466190
     27      H    0.0000053657    0.0000407437   -0.0000262688
     28      H   -0.0000001673    0.0000572225   -0.0000368140


--------------
Atomic charges
--------------
  Index   Atom    Charge
      1      C    0.3562
      2      O   -0.5329
      3      C    0.9403
      4      C    0.7070
      5      O   -0.5377
      6      O   -0.5259
      7      C    0.9628
      8      C   -0.1915
      9      C    0.7202
     10      O   -0.5571
     11      O   -0.5715
     12      C    0.9820
     13      C    0.7488
     14      O   -0.5417
     15      O   -0.5226
     16      C    0.9557
     17      H   -0.2336
     18      H   -0.1646
     19      H   -0.1850
     20      H   -0.1771
     21      H   -0.1858
     22      H   -0.2297
     23      H   -0.1889
     24      H   -0.2447
     25      H   -0.1852
     26      H   -0.2352
     27      H   -0.1785
     28      H   -0.1841


Dipole moment vector    (Debye):     2.32701114   -1.21969633   -2.94345625
              magnitude (Debye):     3.94544987


-----------------------
Molecular orbitals info
-----------------------
n orbitals:              548
n spin:                    1

Note: only printing virtual orbitals with
      energy smaller than HOMO + 100. eV

HOMO (eV):              -5.9633
LUMO (eV):              -2.4609
HOMO-LUMO gap (eV):      3.5024

   Index   Energy (eV)    Occupation
     349       94.0171         0.000       
     348       93.5381         0.000       
     347       93.3935         0.000       
     346       93.2359         0.000       
     345       93.0284         0.000       
     344       92.9577         0.000       
     343       92.8175         0.000       
     342       92.5605         0.000       
     341       92.3524         0.000       
     340       92.1711         0.000       
     339       92.1453         0.000       
     338       91.3413         0.000       
     337       91.1081         0.000       
     336       90.7131         0.000       
     335       90.5260         0.000       
     334       90.0541         0.000       
     333       89.8418         0.000       
     332       89.6924         0.000       
     331       89.5609         0.000       
     330       89.2788         0.000       
     329       89.0942         0.000       
     328       88.6503         0.000       
     327       88.3523         0.000       
     326       88.0425         0.000       
     325       86.1718         0.000       
     324       85.8547         0.000       
     323       84.9940         0.000       
     322       84.7251         0.000       
     321       83.9038         0.000       
     320       83.6508         0.000       
     319       83.3444         0.000       
     318       81.9368         0.000       
     317       81.5102         0.000       
     316       80.9680         0.000       
     315       80.5611         0.000       
     314       80.0649         0.000       
     313       79.7268         0.000       
     312       79.4007         0.000       
     311       78.9644         0.000       
     310       78.6031         0.000       
     309       78.1014         0.000       
     308       77.8940         0.000       
     307       77.2301         0.000       
     306       76.9860         0.000       
     305       76.9381         0.000       
     304       76.6183         0.000       
     303       76.4433         0.000       
     302       76.3379         0.000       
     301       76.2092         0.000       
     300       76.0392         0.000       
     299       75.9952         0.000       
     298       75.9033         0.000       
     297       75.7857         0.000       
     296       75.6587         0.000       
     295       75.5964         0.000       
     294       75.4973         0.000       
     293       74.8975         0.000       
     292       73.6776         0.000       
     291       73.4663         0.000       
     290       73.0526         0.000       
     289       72.6636         0.000       
     288       71.9863         0.000       
     287       71.4654         0.000       
     286       70.9238         0.000       
     285       68.8860         0.000       
     284       68.6081         0.000       
     283       68.1200         0.000       
     282       67.3525         0.000       
     281       66.9640         0.000       
     280       66.7135         0.000       
     279       66.1673         0.000       
     278       65.5713         0.000       
     277       65.3432         0.000       
     276       64.6778         0.000       
     275       63.9885         0.000       
     274       63.0014         0.000       
     273       62.5256         0.000       
     272       61.9225         0.000       
     271       61.4944         0.000       
     270       61.0671         0.000       
     269       60.9427         0.000       
     268       60.0965         0.000       
     267       59.2810         0.000       
     266       59.2035         0.000       
     265       58.5245         0.000       
     264       58.0546         0.000       
     263       57.9341         0.000       
     262       57.5545         0.000       
     261       57.0245         0.000       
     260       56.8033         0.000       
     259       56.6447         0.000       
     258       56.5292         0.000       
     257       56.2935         0.000       
     256       55.6496         0.000       
     255       55.3154         0.000       
     254       55.1595         0.000       
     253       54.8074         0.000       
     252       54.1809         0.000       
     251       53.5754         0.000       
     250       53.3309         0.000       
     249       52.8031         0.000       
     248       52.0259         0.000       
     247       51.9453         0.000       
     246       51.3936         0.000       
     245       50.8794         0.000       
     244       50.3310         0.000       
     243       50.2119         0.000       
     242       49.8033         0.000       
     241       49.5910         0.000       
     240       49.2161         0.000       
     239       48.8516         0.000       
     238       48.5927         0.000       
     237       48.3283         0.000       
     236       48.2177         0.000       
     235       47.8717         0.000       
     234       47.7273         0.000       
     233       47.4779         0.000       
     232       46.6666         0.000       
     231       45.9434         0.000       
     230       45.7328         0.000       
     229       45.1200         0.000       
     228       44.8769         0.000       
     227       44.6126         0.000       
     226       44.1741         0.000       
     225       43.8119         0.000       
     224       43.4097         0.000       
     223       43.1397         0.000       
     222       42.9590         0.000       
     221       42.2941         0.000       
     220       42.1122         0.000       
     219       42.0089         0.000       
     218       41.7213         0.000       
     217       41.1132         0.000       
     216       40.5720         0.000       
     215       40.2639         0.000       
     214       39.9278         0.000       
     213       39.4973         0.000       
     212       38.8384         0.000       
     211       38.6617         0.000       
     210       38.3167         0.000       
     209       38.2007         0.000       
     208       37.9188         0.000       
     207       37.5947         0.000       
     206       37.4566         0.000       
     205       37.1373         0.000       
     204       36.5696         0.000       
     203       35.9584         0.000       
     202       35.8169         0.000       
     201       35.2702         0.000       
     200       34.6140         0.000       
     199       34.2472         0.000       
     198       34.0208         0.000       
     197       33.3491         0.000       
     196       33.0550         0.000       
     195       32.8781         0.000       
     194       32.6239         0.000       
     193       32.3238         0.000       
     192       31.7816         0.000       
     191       31.5095         0.000       
     190       31.2298         0.000       
     189       30.8507         0.000       
     188       30.6331         0.000       
     187       30.2698         0.000       
     186       29.8809         0.000       
     185       29.8323         0.000       
     184       29.3724         0.000       
     183       29.3069         0.000       
     182       28.9194         0.000       
     181       28.7736         0.000       
     180       28.4859         0.000       
     179       28.3508         0.000       
     178       28.0898         0.000       
     177       27.6302         0.000       
     176       27.3499         0.000       
     175       27.2111         0.000       
     174       27.1758         0.000       
     173       26.8540         0.000       
     172       26.5077         0.000       
     171       26.4092         0.000       
     170       26.2398         0.000       
     169       25.7946         0.000       
     168       25.6065         0.000       
     167       25.4338         0.000       
     166       25.2634         0.000       
     165       25.1561         0.000       
     164       24.8347         0.000       
     163       24.7373         0.000       
     162       24.5280         0.000       
     161       24.0821         0.000       
     160       23.5777         0.000       
     159       23.2672         0.000       
     158       22.6964         0.000       
     157       22.6562         0.000       
     156       22.4261         0.000       
     155       22.1614         0.000       
     154       21.5925         0.000       
     153       21.3590         0.000       
     152       20.7641         0.000       
     151       20.4431         0.000       
     150       20.1101         0.000       
     149       19.7333         0.000       
     148       19.1525         0.000       
     147       18.8947         0.000       
     146       18.5636         0.000       
     145       18.3169         0.000       
     144       17.6317         0.000       
     143       17.4147         0.000       
     142       16.6978         0.000       
     141       16.4899         0.000       
     140       15.7139         0.000       
     139       15.4519         0.000       
     138       14.9322         0.000       
     137       14.8698         0.000       
     136       14.7297         0.000       
     135       14.2606         0.000       
     134       14.1701         0.000       
     133       13.9333         0.000       
     132       13.4306         0.000       
     131       13.0600         0.000       
     130       12.4404         0.000       
     129       12.3478         0.000       
     128       12.1782         0.000       
     127       11.9554         0.000       
     126       11.7929         0.000       
     125       11.3570         0.000       
     124       11.2787         0.000       
     123       11.0222         0.000       
     122       10.7940         0.000       
     121       10.5618         0.000       
     120       10.3747         0.000       
     119       10.3142         0.000       
     118       10.1383         0.000       
     117        9.9514         0.000       
     116        9.8579         0.000       
     115        9.6617         0.000       
     114        9.3000         0.000       
     113        9.2206         0.000       
     112        9.0113         0.000       
     111        8.8764         0.000       
     110        8.8316         0.000       
     109        8.6939         0.000       
     108        8.4648         0.000       
     107        8.0299         0.000       
     106        7.8286         0.000       
     105        7.4195         0.000       
     104        7.3022         0.000       
     103        7.1546         0.000       
     102        6.9654         0.000       
     101        6.9424         0.000       
     100        6.7546         0.000       
      99        6.6429         0.000       
      98        6.1797         0.000       
      97        5.8288         0.000       
      96        5.5787         0.000       
      95        5.5099         0.000       
      94        5.3583         0.000       
      93        5.1299         0.000       
      92        5.0578         0.000       
      91        4.8305         0.000       
      90        4.6686         0.000       
      89        4.5030         0.000       
      88        4.3327         0.000       
      87        4.1829         0.000       
      86        4.1038         0.000       
      85        3.7443         0.000       
      84        3.6215         0.000       
      83        3.4926         0.000       
      82        3.3212         0.000       
      81        2.6473         0.000       
      80        1.8427         0.000       
      79        1.7220         0.000       
      78        1.6566         0.000       
      77        1.6367         0.000       
      76        1.5023         0.000       
      75        1.4015         0.000       
      74        1.1270         0.000       
      73        1.0649         0.000       
      72        0.8565         0.000       
      71        0.7911         0.000       
      70        0.6630         0.000       
      69        0.4843         0.000       
      68        0.2450         0.000       
      67        0.0997         0.000       
      66       -0.1052         0.000       
      65       -0.5448         0.000       
      64       -0.9677         0.000       
      63       -1.6717         0.000       
      62       -2.4609         0.000 < LUMO
      61       -5.9633         2.000 < HOMO
      60       -6.4672         2.000       
      59       -6.5576         2.000       
      58       -7.1348         2.000       
      57       -7.1694         2.000       
      56       -7.2957         2.000       
      55       -7.8785         2.000       
      54       -8.5364         2.000       
      53       -8.6130         2.000       
      52       -8.7730         2.000       
      51       -9.0612         2.000       
      50       -9.2735         2.000       
      49       -9.4826         2.000       
      48       -9.8346         2.000       
      47       -9.9868         2.000       
      46      -10.0990         2.000       
      45      -10.3850         2.000       
      44      -10.7544         2.000       
      43      -11.2845         2.000       
      42      -11.3114         2.000       
      41      -11.3433         2.000       
      40      -11.4555         2.000       
      39      -11.6781         2.000       
      38      -11.7645         2.000       
      37      -12.0085         2.000       
      36      -12.1305         2.000       
      35      -12.4279         2.000       
      34      -13.1908         2.000       
      33      -13.4980         2.000       
      32      -13.7764         2.000       
      31      -14.3664         2.000       
      30      -14.7666         2.000       
      29      -16.3077         2.000       
      28      -17.2974         2.000       
      27      -18.0494         2.000       
      26      -18.4183         2.000       
      25      -18.7822         2.000       
      24      -20.5901         2.000       
      23      -25.1830         2.000       
      22      -25.2133         2.000       
      21      -25.8872         2.000       
      20      -27.1565         2.000       
      19      -27.2908         2.000       
      18      -27.4317         2.000       
      17      -28.0847         2.000       
      16     -270.8290         2.000       
      15     -271.3315         2.000       
      14     -271.5087         2.000       
      13     -271.9087         2.000       
      12     -271.9260         2.000       
      11     -272.7855         2.000       
      10     -273.4627         2.000       
       9     -273.4842         2.000       
       8     -274.1091         2.000       
       7     -511.0659         2.000       
       6     -511.1525         2.000       
       5     -511.8191         2.000       
       4     -512.6384         2.000       
       3     -512.6920         2.000       
       2     -513.1838         2.000       
       1     -513.3023         2.000       

AMS application finished. Exiting.
NORMAL TERMINATION
     Total cpu time:    8652.43
  Total system time:      43.80
 Total elapsed time:    8740.17
NORMAL TERMINATION
