
 *******************************************************************************
 *                                                                             *
 *  --------------------------------                                           *
 *   Amsterdam Modeling Suite (AMS)              2026.103                      *
 *  --------------------------------                                           *
 *                                               r260501 2026-05-01 873454b5   *
 *                                                                             *
 *                                                                             *
 *                              =================                              *
 *                              |               |                              *
 *                              |     A M S     |                              *
 *                              |               |                              *
 *                              =================                              *
 *                                                                             *
 *                                                                             *
 *   Online information and documentation:  https://www.scm.com/support/       *
 *   E-mail:  support@scm.com   info@scm.com                                   *
 *                                                                             *
 *   Scientific publications using AMS results must be properly referenced     *
 *   See the User Manuals (or the web site) for recommended citations          *
 *   The terms and conditions of the End User License Agreement apply to       *
 *   the use of AMS, https://www.scm.com/license-terms/                        *
 *                                                                             *
 **********************  x86_64_linux_intel / intelmpi  ************************
 
 Licensed to: Jong-June Jeon / University of Seoul 2026-05-13 16:10:32
 SCM User ID: u30731
  
 AMS 2026.103  RunTime: Jun01-2026 01:10:52  ShM Nodes: 1  Procs: 1

 AMS jobname: c2_fragB_ts
 AMS jobid  : 861250562

 Start   directory: /gpfs/home1/yeseo1ee/projects/eda-asm-prediction/adf_outputs/batch_001/dipolar_002098/
 Results directory: /gpfs/home1/yeseo1ee/projects/eda-asm-prediction/adf_outputs/batch_001/dipolar_002098/c2_fragB_ts.results/
 Scratch directory: /tmp/amstmp_c2_fragB_ts_kid0.861250562/

 RNG seed: 505592291 -491624863 612134273 -1205667107 -399212686 1502867312 1110783569 17895857



                      ************************************************************************
                      *  ADF 2026.103  RunTime: Jun01-2026 01:10:52  ShM Nodes: 1  Procs: 1  *
                      ************************************************************************
  

       ****************************
       * SINGLE POINT CALCULATION *
       ****************************

--------
Geometry
--------
Formula: C14H13F3
Atoms
  Index Symbol   x (angstrom)   y (angstrom)   z (angstrom)
      1      C     1.40885000     0.09342000    -0.35770000
      2      C     2.26556000     0.09644000     0.85574000
      3      C     3.66872000     0.15935000     0.72989000
      4      C     4.49558000     0.19954000     1.85503000
      5      C     3.94465000     0.19764000     3.13887000
      6      C     2.55394000     0.16631000     3.28169000
      7      C     1.72742000     0.12140000     2.15885000
      8      C     2.01788000     0.37145000    -1.73655000
      9      C     2.62216000    -0.97829000    -2.24317000
     10      C     1.36078000    -1.81589000    -2.59128000
     11      C     0.19584000    -0.88278000    -2.14639000
     12      C     0.76391000     0.46844000    -2.61807000
     13      C     0.25789000    -0.71647000    -0.61517000
     14      C    -0.07898000    -1.94041000     0.18791000
     15      F     0.93806000    -2.84988000     0.17009000
     16      F    -1.15292000    -2.58188000    -0.32303000
     17      F    -0.33554000    -1.74009000     1.49226000
     18      H     4.12993000     0.17314000    -0.25684000
     19      H     5.57960000     0.23749000     1.72261000
     20      H     4.59113000     0.23182000     4.01890000
     21      H     2.10363000     0.18642000     4.27719000
     22      H     0.65006000     0.12433000     2.30194000
     23      H     2.71085000     1.22130000    -1.75993000
     24      H     3.24849000    -1.46334000    -1.48316000
     25      H     3.24894000    -0.79828000    -3.12899000
     26      H     1.27897000    -1.98387000    -3.67535000
     27      H     1.34169000    -2.79607000    -2.10155000
     28      H    -0.78544000    -1.17874000    -2.52705000
     29      H     0.99893000     0.46421000    -3.69205000
     30      H     0.13178000     1.33613000    -2.40428000

Total System Charge              0.00000


----------------
ADF Engine Input
----------------
 
   Basis
     Type TZ2P
     Core None
   End
   XC
     GGA BLYP
     Dispersion GRIMME3 BJDAMP
   End
   Symmetry NOSYM
   NumericalQuality Normal
   Unrestricted No
   SCF
     Iterations 200
     Converge 1.0e-6
   End
   Save TAPE21
 

 Title: *** (NO TITLE) ***

 *** adf ***



 ===========================
 A T T A C H E D   F I L E S
 ===========================
  



 ===============================
 M O D E L   P A R A M E T E R S
 ===============================
  
 DENSITY FUNCTIONAL POTENTIAL (scf)
    LDA:                               Exchange only                           == Not Default ==
    Gradient Corrections:              Becke88 LYP                             == Not Default ==

 SPIN  (restricted / unrestr.)
    Molecule:                          Restricted                               
    Fragments:                         Restricted                               

 OTHER ASPECTS
    Relativistic Corrections:          scalar (ZORA,MAPA)                       

    Nuclear Charge Density Model:      Point Charge Nuclei                      
    Core Treatment:                    Frozen Orbital(s)                        

    Hyperfine or Zeeman Interaction:   ---                                      

 Settings for Grimme D3 dispersion correction

      damping                        BJ
      s6                          1.000
      s8                          2.700
      a1                          0.430
      a2                          4.236

 Other (technical) parameters

      alpha                      14.000
      version                         4
 


 Fragment File(s)
 ----------------
 C:
         file : /gpfs/home1/yeseo1ee/projects/eda-asm-prediction/adf_outputs/batch_001/dipolar_002098/c2_fragB_ts.results/t21.50BA88D5.C
         jobid: 0
         title: Carbon (TZ2P)
 F:
         file : /gpfs/home1/yeseo1ee/projects/eda-asm-prediction/adf_outputs/batch_001/dipolar_002098/c2_fragB_ts.results/t21.CCE1280.F
         jobid: 0
         title: Fluorine (TZ2P)
 H:
         file : /gpfs/home1/yeseo1ee/projects/eda-asm-prediction/adf_outputs/batch_001/dipolar_002098/c2_fragB_ts.results/t21.6F35CCAB.H
         jobid: 0
         title: Hydrogen (TZ2P)



 ===============
 G E O M E T R Y  ***  3D  Molecule  ***
 ===============
  

 ATOMS
 =====                            X Y Z                    CHARGE
                                (Angstrom)             Nucl     +Core       At.Mass
                       --------------------------    ----------------       -------
    1  C               1.4088    0.0934   -0.3577      6.00      6.00       12.0000
    2  C               2.2656    0.0964    0.8557      6.00      6.00       12.0000
    3  C               3.6687    0.1593    0.7299      6.00      6.00       12.0000
    4  C               4.4956    0.1995    1.8550      6.00      6.00       12.0000
    5  C               3.9447    0.1976    3.1389      6.00      6.00       12.0000
    6  C               2.5539    0.1663    3.2817      6.00      6.00       12.0000
    7  C               1.7274    0.1214    2.1588      6.00      6.00       12.0000
    8  C               2.0179    0.3714   -1.7366      6.00      6.00       12.0000
    9  C               2.6222   -0.9783   -2.2432      6.00      6.00       12.0000
   10  C               1.3608   -1.8159   -2.5913      6.00      6.00       12.0000
   11  C               0.1958   -0.8828   -2.1464      6.00      6.00       12.0000
   12  C               0.7639    0.4684   -2.6181      6.00      6.00       12.0000
   13  C               0.2579   -0.7165   -0.6152      6.00      6.00       12.0000
   14  C              -0.0790   -1.9404    0.1879      6.00      6.00       12.0000
   15  F               0.9381   -2.8499    0.1701      9.00      9.00       18.9984
   16  F              -1.1529   -2.5819   -0.3230      9.00      9.00       18.9984
   17  F              -0.3355   -1.7401    1.4923      9.00      9.00       18.9984
   18  H               4.1299    0.1731   -0.2568      1.00      1.00        1.0078
   19  H               5.5796    0.2375    1.7226      1.00      1.00        1.0078
   20  H               4.5911    0.2318    4.0189      1.00      1.00        1.0078
   21  H               2.1036    0.1864    4.2772      1.00      1.00        1.0078
   22  H               0.6501    0.1243    2.3019      1.00      1.00        1.0078
   23  H               2.7109    1.2213   -1.7599      1.00      1.00        1.0078
   24  H               3.2485   -1.4633   -1.4832      1.00      1.00        1.0078
   25  H               3.2489   -0.7983   -3.1290      1.00      1.00        1.0078
   26  H               1.2790   -1.9839   -3.6753      1.00      1.00        1.0078
   27  H               1.3417   -2.7961   -2.1016      1.00      1.00        1.0078
   28  H              -0.7854   -1.1787   -2.5271      1.00      1.00        1.0078
   29  H               0.9989    0.4642   -3.6921      1.00      1.00        1.0078
   30  H               0.1318    1.3361   -2.4043      1.00      1.00        1.0078


 FRAGMENTS
 =========                                     Atoms in this Fragment     Cart. coord.s (Angstrom)
                                               -------------------------------------------------------
    1  C                                                 1  C            1.4088    0.0934   -0.3577
    2  C                                                 2  C            2.2656    0.0964    0.8557
    3  C                                                 3  C            3.6687    0.1593    0.7299
    4  C                                                 4  C            4.4956    0.1995    1.8550
    5  C                                                 5  C            3.9447    0.1976    3.1389
    6  C                                                 6  C            2.5539    0.1663    3.2817
    7  C                                                 7  C            1.7274    0.1214    2.1588
    8  C                                                 8  C            2.0179    0.3714   -1.7366
    9  C                                                 9  C            2.6222   -0.9783   -2.2432
   10  C                                                10  C            1.3608   -1.8159   -2.5913
   11  C                                                11  C            0.1958   -0.8828   -2.1464
   12  C                                                12  C            0.7639    0.4684   -2.6181
   13  C                                                13  C            0.2579   -0.7165   -0.6152
   14  C                                                14  C           -0.0790   -1.9404    0.1879
   15  F                                                15  F            0.9381   -2.8499    0.1701
   16  F                                                16  F           -1.1529   -2.5819   -0.3230
   17  F                                                17  F           -0.3355   -1.7401    1.4923
   18  H                                                18  H            4.1299    0.1731   -0.2568
   19  H                                                19  H            5.5796    0.2375    1.7226
   20  H                                                20  H            4.5911    0.2318    4.0189
   21  H                                                21  H            2.1036    0.1864    4.2772
   22  H                                                22  H            0.6501    0.1243    2.3019
   23  H                                                23  H            2.7109    1.2213   -1.7599
   24  H                                                24  H            3.2485   -1.4633   -1.4832
   25  H                                                25  H            3.2489   -0.7983   -3.1290
   26  H                                                26  H            1.2790   -1.9839   -3.6753
   27  H                                                27  H            1.3417   -2.7961   -2.1016
   28  H                                                28  H           -0.7854   -1.1787   -2.5271
   29  H                                                29  H            0.9989    0.4642   -3.6921
   30  H                                                30  H            0.1318    1.3361   -2.4043



 =====================================
 S Y M M E T R Y ,   E L E C T R O N S
 =====================================
  
 Symmetry: NOSYM

 Irreducible Representations, including subspecies
 -------------------------------------------------
 A


 Configuration of Valence Electrons
 ==================================
 ( determined in the SCF procedure )

 Total:   124

 Net Charge: 0 (Nuclei minus Electrons)

 Aufbau principle for MO occupations will be applied through SCF cycle no.     100
 Thereafter, the program will assign electrons to MOs that are spatially
 similar to the occupied MOs in a "reference" cycle ("KeepOrbitals").
 The reference cycle is always the PREVIOUS cycle: it will evolve with
 the SCF procedure.
 ***************************************************************************************************



                                      ****************************************
                                      *  B U I L D : (Fragments, Functions)  *
                                      ****************************************
  



 =======
 S F O s  ***  (Symmetrized Fragment Orbitals)  ***
 =======
  
 SFOs are linear combinations of (valence) Fragment Orbitals (FOs), such that the SFOs transform as the
 irreducible representations of the (molecular) symmetry group. Each SFO is therefore characterized by
 an irrep of the molecule and by a few (or only one) generating FOs.
 The SFOs constitute a symmetry-adapted basis for the Fock matrix. The MO eigenvector coefficients in
 this basis provide a direct interpretation of the MOs in terms of Frontier Orbital Theory.

 The SFOs are combined with auxiliary Core Functions (CFs) to ensure orthogonalization on the (frozen)
 Core Orbitals (COs). The Core-orthogonalized SFOs (CSFOs) constitute the true Fock basis.

 The FOs, and hence also the (C)SFOs are combinations of the elementary basis functions (BAS). The basis
 functions that participate in the description of the SFOs depend on the irrep. The indices of the
 involved functions are printed below for each irrep.
 (The complete list of primitive basis functions is printed in another section)

 Total nr. of (C)SFOs (summation over all irreps) :   585

 NOTE: a (C)SFO that is defined as a combination of more than one FO is usually NOT normalized.



                                       === A ===
 Nr. of SFOs :  585
 Cartesian basis functions that participate in this irrep (total number =   666) :
      1     2     3     4     5     6     9    12     7    10
     13     8    11    14    15    16    17    18    19    20
     21    22    23    24    25    26    27    28    29    30
     31    32    33    34    35    36    39    42    37    40
     43    38    41    44    45    46    47    48    49    50
     51    52    53    54    55    56    57    58    59    60
     61    62    63    64    65    66    69    72    67    70
     73    68    71    74    75    76    77    78    79    80
     81    82    83    84    85    86    87    88    89    90
     91    92    93    94    95    96    99   102    97   100
    103    98   101   104   105   106   107   108   109   110
    111   112   113   114   115   116   117   118   119   120
    121   122   123   124   125   126   129   132   127   130
    133   128   131   134   135   136   137   138   139   140
    141   142   143   144   145   146   147   148   149   150
    151   152   153   154   155   156   159   162   157   160
    163   158   161   164   165   166   167   168   169   170
    171   172   173   174   175   176   177   178   179   180
    181   182   183   184   185   186   189   192   187   190
    193   188   191   194   195   196   197   198   199   200
    201   202   203   204   205   206   207   208   209   210
    211   212   213   214   215   216   219   222   217   220
    223   218   221   224   225   226   227   228   229   230
    231   232   233   234   235   236   237   238   239   240
    241   242   243   244   245   246   249   252   247   250
    253   248   251   254   255   256   257   258   259   260
    261   262   263   264   265   266   267   268   269   270
    271   272   273   274   275   276   279   282   277   280
    283   278   281   284   285   286   287   288   289   290
    291   292   293   294   295   296   297   298   299   300
    301   302   303   304   305   306   309   312   307   310
    313   308   311   314   315   316   317   318   319   320
    321   322   323   324   325   326   327   328   329   330
    331   332   333   334   335   336   339   342   337   340
    343   338   341   344   345   346   347   348   349   350
    351   352   353   354   355   356   357   358   359   360
    361   362   363   364   365   366   369   372   367   370
    373   368   371   374   375   376   377   378   379   380
    381   382   383   384   385   386   387   388   389   390
    391   392   393   394   395   396   399   402   397   400
    403   398   401   404   405   406   407   408   409   410
    411   412   413   414   415   416   417   418   419   420
    421   422   423   424   425   426   429   432   427   430
    433   428   431   434   435   436   437   438   439   440
    441   442   443   444   445   446   447   448   449   450
    451   452   453   454   455   456   459   462   457   460
    463   458   461   464   465   466   467   468   469   470
    471   472   473   474   475   476   477   478   479   480
    481   482   483   484   485   486   489   492   487   490
    493   488   491   494   495   496   497   498   499   500
    501   502   503   504   505   506   507   508   509   510
    511   512   513   514   515   516   517   518   519   520
    521   522   523   524   525   526   527   528   529   530
    531   532   533   534   535   536   537   538   539   540
    541   542   543   544   545   546   547   548   549   550
    551   552   553   554   555   556   557   558   559   560
    561   562   563   564   565   566   567   568   569   570
    571   572   573   574   575   576   577   578   579   580
    581   582   583   584   585   586   587   588   589   590
    591   592   593   594   595   596   597   598   599   600
    601   602   603   604   605   606   607   608   609   610
    611   612   613   614   615   616   617   618   619   620
    621   622   623   624   625   626   627   628   629   630
    631   632   633   634   635   636   637   638   639   640
    641   642   643   644   645   646   647   648   649   650
    651   652   653   654   655   656   657   658   659   660
    661   662   663   664   665   666

    SFO  (index         Fragment          Generating    Expansion in Fragment Orbitals
  indx  incl.CFs)   Occup   Orb.Energy   FragmentType  Coeff.   Orbital     on Fragment
 --------------------------------------------------------------------------------------
     1       1      2.000     -10.066 au  C             1.00      1 S               1
                        (    -273.921 eV)
     2       2      2.000      -0.501 au  C             1.00      2 S               1
                        (     -13.620 eV)
     3       3       --         0.373 au  C             1.00      3 S               1
                        (      10.158 eV)
     4       4       --         5.405 au  C             1.00      4 S               1
                        (     147.073 eV)
     5       5       --        49.848 au  C             1.00      5 S               1
                        (    1356.422 eV)
     6       6      0.667      -0.193 au  C             1.00      1 P:x             1
                        (      -5.239 eV)
     7       7       --         0.169 au  C             1.00      2 P:x             1
                        (       4.589 eV)
     8       8       --         2.013 au  C             1.00      3 P:x             1
                        (      54.789 eV)
     9       9      0.667      -0.193 au  C             1.00      1 P:y             1
                        (      -5.239 eV)
    10      10       --         0.169 au  C             1.00      2 P:y             1
                        (       4.589 eV)
    11      11       --         2.013 au  C             1.00      3 P:y             1
                        (      54.789 eV)
    12      12      0.667      -0.193 au  C             1.00      1 P:z             1
                        (      -5.239 eV)
    13      13       --         0.169 au  C             1.00      2 P:z             1
                        (       4.589 eV)
    14      14       --         2.013 au  C             1.00      3 P:z             1
                        (      54.789 eV)
    15      15       --         1.243 au  C             1.00      1 D:z2            1
                        (      33.824 eV)
    16      16       --         1.243 au  C             1.00      1 D:x2-y2         1
                        (      33.824 eV)
    17      17       --         1.243 au  C             1.00      1 D:xy            1
                        (      33.824 eV)
    18      18       --         1.243 au  C             1.00      1 D:xz            1
                        (      33.824 eV)
    19      19       --         1.243 au  C             1.00      1 D:yz            1
                        (      33.824 eV)
    20      20       --         4.016 au  C             1.00      1 F:z3            1
                        (     109.271 eV)
    21      21       --         4.016 au  C             1.00      1 F:z             1
                        (     109.271 eV)
    22      22       --         4.016 au  C             1.00      1 F:xyz           1
                        (     109.271 eV)
    23      23       --         4.016 au  C             1.00      1 F:z2x           1
                        (     109.271 eV)
    24      24       --         4.016 au  C             1.00      1 F:z2y           1
                        (     109.271 eV)
    25      25       --         4.016 au  C             1.00      1 F:x             1
                        (     109.271 eV)
    26      26       --         4.016 au  C             1.00      1 F:y             1
                        (     109.271 eV)
    27      27      2.000     -10.066 au  C             1.00      1 S               2
                        (    -273.921 eV)
    28      28      2.000      -0.501 au  C             1.00      2 S               2
                        (     -13.620 eV)
    29      29       --         0.373 au  C             1.00      3 S               2
                        (      10.158 eV)
    30      30       --         5.405 au  C             1.00      4 S               2
                        (     147.073 eV)
    31      31       --        49.848 au  C             1.00      5 S               2
                        (    1356.422 eV)
    32      32      0.667      -0.193 au  C             1.00      1 P:x             2
                        (      -5.239 eV)
    33      33       --         0.169 au  C             1.00      2 P:x             2
                        (       4.589 eV)
    34      34       --         2.013 au  C             1.00      3 P:x             2
                        (      54.789 eV)
    35      35      0.667      -0.193 au  C             1.00      1 P:y             2
                        (      -5.239 eV)
    36      36       --         0.169 au  C             1.00      2 P:y             2
                        (       4.589 eV)
    37      37       --         2.013 au  C             1.00      3 P:y             2
                        (      54.789 eV)
    38      38      0.667      -0.193 au  C             1.00      1 P:z             2
                        (      -5.239 eV)
    39      39       --         0.169 au  C             1.00      2 P:z             2
                        (       4.589 eV)
    40      40       --         2.013 au  C             1.00      3 P:z             2
                        (      54.789 eV)
    41      41       --         1.243 au  C             1.00      1 D:z2            2
                        (      33.824 eV)
    42      42       --         1.243 au  C             1.00      1 D:x2-y2         2
                        (      33.824 eV)
    43      43       --         1.243 au  C             1.00      1 D:xy            2
                        (      33.824 eV)
    44      44       --         1.243 au  C             1.00      1 D:xz            2
                        (      33.824 eV)
    45      45       --         1.243 au  C             1.00      1 D:yz            2
                        (      33.824 eV)
    46      46       --         4.016 au  C             1.00      1 F:z3            2
                        (     109.271 eV)
    47      47       --         4.016 au  C             1.00      1 F:z             2
                        (     109.271 eV)
    48      48       --         4.016 au  C             1.00      1 F:xyz           2
                        (     109.271 eV)
    49      49       --         4.016 au  C             1.00      1 F:z2x           2
                        (     109.271 eV)
    50      50       --         4.016 au  C             1.00      1 F:z2y           2
                        (     109.271 eV)
    51      51       --         4.016 au  C             1.00      1 F:x             2
                        (     109.271 eV)
    52      52       --         4.016 au  C             1.00      1 F:y             2
                        (     109.271 eV)
    53      53      2.000     -10.066 au  C             1.00      1 S               3
                        (    -273.921 eV)
    54      54      2.000      -0.501 au  C             1.00      2 S               3
                        (     -13.620 eV)
    55      55       --         0.373 au  C             1.00      3 S               3
                        (      10.158 eV)
    56      56       --         5.405 au  C             1.00      4 S               3
                        (     147.073 eV)
    57      57       --        49.848 au  C             1.00      5 S               3
                        (    1356.422 eV)
    58      58      0.667      -0.193 au  C             1.00      1 P:x             3
                        (      -5.239 eV)
    59      59       --         0.169 au  C             1.00      2 P:x             3
                        (       4.589 eV)
    60      60       --         2.013 au  C             1.00      3 P:x             3
                        (      54.789 eV)
    61      61      0.667      -0.193 au  C             1.00      1 P:y             3
                        (      -5.239 eV)
    62      62       --         0.169 au  C             1.00      2 P:y             3
                        (       4.589 eV)
    63      63       --         2.013 au  C             1.00      3 P:y             3
                        (      54.789 eV)
    64      64      0.667      -0.193 au  C             1.00      1 P:z             3
                        (      -5.239 eV)
    65      65       --         0.169 au  C             1.00      2 P:z             3
                        (       4.589 eV)
    66      66       --         2.013 au  C             1.00      3 P:z             3
                        (      54.789 eV)
    67      67       --         1.243 au  C             1.00      1 D:z2            3
                        (      33.824 eV)
    68      68       --         1.243 au  C             1.00      1 D:x2-y2         3
                        (      33.824 eV)
    69      69       --         1.243 au  C             1.00      1 D:xy            3
                        (      33.824 eV)
    70      70       --         1.243 au  C             1.00      1 D:xz            3
                        (      33.824 eV)
    71      71       --         1.243 au  C             1.00      1 D:yz            3
                        (      33.824 eV)
    72      72       --         4.016 au  C             1.00      1 F:z3            3
                        (     109.271 eV)
    73      73       --         4.016 au  C             1.00      1 F:z             3
                        (     109.271 eV)
    74      74       --         4.016 au  C             1.00      1 F:xyz           3
                        (     109.271 eV)
    75      75       --         4.016 au  C             1.00      1 F:z2x           3
                        (     109.271 eV)
    76      76       --         4.016 au  C             1.00      1 F:z2y           3
                        (     109.271 eV)
    77      77       --         4.016 au  C             1.00      1 F:x             3
                        (     109.271 eV)
    78      78       --         4.016 au  C             1.00      1 F:y             3
                        (     109.271 eV)
    79      79      2.000     -10.066 au  C             1.00      1 S               4
                        (    -273.921 eV)
    80      80      2.000      -0.501 au  C             1.00      2 S               4
                        (     -13.620 eV)
    81      81       --         0.373 au  C             1.00      3 S               4
                        (      10.158 eV)
    82      82       --         5.405 au  C             1.00      4 S               4
                        (     147.073 eV)
    83      83       --        49.848 au  C             1.00      5 S               4
                        (    1356.422 eV)
    84      84      0.667      -0.193 au  C             1.00      1 P:x             4
                        (      -5.239 eV)
    85      85       --         0.169 au  C             1.00      2 P:x             4
                        (       4.589 eV)
    86      86       --         2.013 au  C             1.00      3 P:x             4
                        (      54.789 eV)
    87      87      0.667      -0.193 au  C             1.00      1 P:y             4
                        (      -5.239 eV)
    88      88       --         0.169 au  C             1.00      2 P:y             4
                        (       4.589 eV)
    89      89       --         2.013 au  C             1.00      3 P:y             4
                        (      54.789 eV)
    90      90      0.667      -0.193 au  C             1.00      1 P:z             4
                        (      -5.239 eV)
    91      91       --         0.169 au  C             1.00      2 P:z             4
                        (       4.589 eV)
    92      92       --         2.013 au  C             1.00      3 P:z             4
                        (      54.789 eV)
    93      93       --         1.243 au  C             1.00      1 D:z2            4
                        (      33.824 eV)
    94      94       --         1.243 au  C             1.00      1 D:x2-y2         4
                        (      33.824 eV)
    95      95       --         1.243 au  C             1.00      1 D:xy            4
                        (      33.824 eV)
    96      96       --         1.243 au  C             1.00      1 D:xz            4
                        (      33.824 eV)
    97      97       --         1.243 au  C             1.00      1 D:yz            4
                        (      33.824 eV)
    98      98       --         4.016 au  C             1.00      1 F:z3            4
                        (     109.271 eV)
    99      99       --         4.016 au  C             1.00      1 F:z             4
                        (     109.271 eV)
   100     100       --         4.016 au  C             1.00      1 F:xyz           4
                        (     109.271 eV)
   101     101       --         4.016 au  C             1.00      1 F:z2x           4
                        (     109.271 eV)
   102     102       --         4.016 au  C             1.00      1 F:z2y           4
                        (     109.271 eV)
   103     103       --         4.016 au  C             1.00      1 F:x             4
                        (     109.271 eV)
   104     104       --         4.016 au  C             1.00      1 F:y             4
                        (     109.271 eV)
   105     105      2.000     -10.066 au  C             1.00      1 S               5
                        (    -273.921 eV)
   106     106      2.000      -0.501 au  C             1.00      2 S               5
                        (     -13.620 eV)
   107     107       --         0.373 au  C             1.00      3 S               5
                        (      10.158 eV)
   108     108       --         5.405 au  C             1.00      4 S               5
                        (     147.073 eV)
   109     109       --        49.848 au  C             1.00      5 S               5
                        (    1356.422 eV)
   110     110      0.667      -0.193 au  C             1.00      1 P:x             5
                        (      -5.239 eV)
   111     111       --         0.169 au  C             1.00      2 P:x             5
                        (       4.589 eV)
   112     112       --         2.013 au  C             1.00      3 P:x             5
                        (      54.789 eV)
   113     113      0.667      -0.193 au  C             1.00      1 P:y             5
                        (      -5.239 eV)
   114     114       --         0.169 au  C             1.00      2 P:y             5
                        (       4.589 eV)
   115     115       --         2.013 au  C             1.00      3 P:y             5
                        (      54.789 eV)
   116     116      0.667      -0.193 au  C             1.00      1 P:z             5
                        (      -5.239 eV)
   117     117       --         0.169 au  C             1.00      2 P:z             5
                        (       4.589 eV)
   118     118       --         2.013 au  C             1.00      3 P:z             5
                        (      54.789 eV)
   119     119       --         1.243 au  C             1.00      1 D:z2            5
                        (      33.824 eV)
   120     120       --         1.243 au  C             1.00      1 D:x2-y2         5
                        (      33.824 eV)
   121     121       --         1.243 au  C             1.00      1 D:xy            5
                        (      33.824 eV)
   122     122       --         1.243 au  C             1.00      1 D:xz            5
                        (      33.824 eV)
   123     123       --         1.243 au  C             1.00      1 D:yz            5
                        (      33.824 eV)
   124     124       --         4.016 au  C             1.00      1 F:z3            5
                        (     109.271 eV)
   125     125       --         4.016 au  C             1.00      1 F:z             5
                        (     109.271 eV)
   126     126       --         4.016 au  C             1.00      1 F:xyz           5
                        (     109.271 eV)
   127     127       --         4.016 au  C             1.00      1 F:z2x           5
                        (     109.271 eV)
   128     128       --         4.016 au  C             1.00      1 F:z2y           5
                        (     109.271 eV)
   129     129       --         4.016 au  C             1.00      1 F:x             5
                        (     109.271 eV)
   130     130       --         4.016 au  C             1.00      1 F:y             5
                        (     109.271 eV)
   131     131      2.000     -10.066 au  C             1.00      1 S               6
                        (    -273.921 eV)
   132     132      2.000      -0.501 au  C             1.00      2 S               6
                        (     -13.620 eV)
   133     133       --         0.373 au  C             1.00      3 S               6
                        (      10.158 eV)
   134     134       --         5.405 au  C             1.00      4 S               6
                        (     147.073 eV)
   135     135       --        49.848 au  C             1.00      5 S               6
                        (    1356.422 eV)
   136     136      0.667      -0.193 au  C             1.00      1 P:x             6
                        (      -5.239 eV)
   137     137       --         0.169 au  C             1.00      2 P:x             6
                        (       4.589 eV)
   138     138       --         2.013 au  C             1.00      3 P:x             6
                        (      54.789 eV)
   139     139      0.667      -0.193 au  C             1.00      1 P:y             6
                        (      -5.239 eV)
   140     140       --         0.169 au  C             1.00      2 P:y             6
                        (       4.589 eV)
   141     141       --         2.013 au  C             1.00      3 P:y             6
                        (      54.789 eV)
   142     142      0.667      -0.193 au  C             1.00      1 P:z             6
                        (      -5.239 eV)
   143     143       --         0.169 au  C             1.00      2 P:z             6
                        (       4.589 eV)
   144     144       --         2.013 au  C             1.00      3 P:z             6
                        (      54.789 eV)
   145     145       --         1.243 au  C             1.00      1 D:z2            6
                        (      33.824 eV)
   146     146       --         1.243 au  C             1.00      1 D:x2-y2         6
                        (      33.824 eV)
   147     147       --         1.243 au  C             1.00      1 D:xy            6
                        (      33.824 eV)
   148     148       --         1.243 au  C             1.00      1 D:xz            6
                        (      33.824 eV)
   149     149       --         1.243 au  C             1.00      1 D:yz            6
                        (      33.824 eV)
   150     150       --         4.016 au  C             1.00      1 F:z3            6
                        (     109.271 eV)
   151     151       --         4.016 au  C             1.00      1 F:z             6
                        (     109.271 eV)
   152     152       --         4.016 au  C             1.00      1 F:xyz           6
                        (     109.271 eV)
   153     153       --         4.016 au  C             1.00      1 F:z2x           6
                        (     109.271 eV)
   154     154       --         4.016 au  C             1.00      1 F:z2y           6
                        (     109.271 eV)
   155     155       --         4.016 au  C             1.00      1 F:x             6
                        (     109.271 eV)
   156     156       --         4.016 au  C             1.00      1 F:y             6
                        (     109.271 eV)
   157     157      2.000     -10.066 au  C             1.00      1 S               7
                        (    -273.921 eV)
   158     158      2.000      -0.501 au  C             1.00      2 S               7
                        (     -13.620 eV)
   159     159       --         0.373 au  C             1.00      3 S               7
                        (      10.158 eV)
   160     160       --         5.405 au  C             1.00      4 S               7
                        (     147.073 eV)
   161     161       --        49.848 au  C             1.00      5 S               7
                        (    1356.422 eV)
   162     162      0.667      -0.193 au  C             1.00      1 P:x             7
                        (      -5.239 eV)
   163     163       --         0.169 au  C             1.00      2 P:x             7
                        (       4.589 eV)
   164     164       --         2.013 au  C             1.00      3 P:x             7
                        (      54.789 eV)
   165     165      0.667      -0.193 au  C             1.00      1 P:y             7
                        (      -5.239 eV)
   166     166       --         0.169 au  C             1.00      2 P:y             7
                        (       4.589 eV)
   167     167       --         2.013 au  C             1.00      3 P:y             7
                        (      54.789 eV)
   168     168      0.667      -0.193 au  C             1.00      1 P:z             7
                        (      -5.239 eV)
   169     169       --         0.169 au  C             1.00      2 P:z             7
                        (       4.589 eV)
   170     170       --         2.013 au  C             1.00      3 P:z             7
                        (      54.789 eV)
   171     171       --         1.243 au  C             1.00      1 D:z2            7
                        (      33.824 eV)
   172     172       --         1.243 au  C             1.00      1 D:x2-y2         7
                        (      33.824 eV)
   173     173       --         1.243 au  C             1.00      1 D:xy            7
                        (      33.824 eV)
   174     174       --         1.243 au  C             1.00      1 D:xz            7
                        (      33.824 eV)
   175     175       --         1.243 au  C             1.00      1 D:yz            7
                        (      33.824 eV)
   176     176       --         4.016 au  C             1.00      1 F:z3            7
                        (     109.271 eV)
   177     177       --         4.016 au  C             1.00      1 F:z             7
                        (     109.271 eV)
   178     178       --         4.016 au  C             1.00      1 F:xyz           7
                        (     109.271 eV)
   179     179       --         4.016 au  C             1.00      1 F:z2x           7
                        (     109.271 eV)
   180     180       --         4.016 au  C             1.00      1 F:z2y           7
                        (     109.271 eV)
   181     181       --         4.016 au  C             1.00      1 F:x             7
                        (     109.271 eV)
   182     182       --         4.016 au  C             1.00      1 F:y             7
                        (     109.271 eV)
   183     183      2.000     -10.066 au  C             1.00      1 S               8
                        (    -273.921 eV)
   184     184      2.000      -0.501 au  C             1.00      2 S               8
                        (     -13.620 eV)
   185     185       --         0.373 au  C             1.00      3 S               8
                        (      10.158 eV)
   186     186       --         5.405 au  C             1.00      4 S               8
                        (     147.073 eV)
   187     187       --        49.848 au  C             1.00      5 S               8
                        (    1356.422 eV)
   188     188      0.667      -0.193 au  C             1.00      1 P:x             8
                        (      -5.239 eV)
   189     189       --         0.169 au  C             1.00      2 P:x             8
                        (       4.589 eV)
   190     190       --         2.013 au  C             1.00      3 P:x             8
                        (      54.789 eV)
   191     191      0.667      -0.193 au  C             1.00      1 P:y             8
                        (      -5.239 eV)
   192     192       --         0.169 au  C             1.00      2 P:y             8
                        (       4.589 eV)
   193     193       --         2.013 au  C             1.00      3 P:y             8
                        (      54.789 eV)
   194     194      0.667      -0.193 au  C             1.00      1 P:z             8
                        (      -5.239 eV)
   195     195       --         0.169 au  C             1.00      2 P:z             8
                        (       4.589 eV)
   196     196       --         2.013 au  C             1.00      3 P:z             8
                        (      54.789 eV)
   197     197       --         1.243 au  C             1.00      1 D:z2            8
                        (      33.824 eV)
   198     198       --         1.243 au  C             1.00      1 D:x2-y2         8
                        (      33.824 eV)
   199     199       --         1.243 au  C             1.00      1 D:xy            8
                        (      33.824 eV)
   200     200       --         1.243 au  C             1.00      1 D:xz            8
                        (      33.824 eV)
   201     201       --         1.243 au  C             1.00      1 D:yz            8
                        (      33.824 eV)
   202     202       --         4.016 au  C             1.00      1 F:z3            8
                        (     109.271 eV)
   203     203       --         4.016 au  C             1.00      1 F:z             8
                        (     109.271 eV)
   204     204       --         4.016 au  C             1.00      1 F:xyz           8
                        (     109.271 eV)
   205     205       --         4.016 au  C             1.00      1 F:z2x           8
                        (     109.271 eV)
   206     206       --         4.016 au  C             1.00      1 F:z2y           8
                        (     109.271 eV)
   207     207       --         4.016 au  C             1.00      1 F:x             8
                        (     109.271 eV)
   208     208       --         4.016 au  C             1.00      1 F:y             8
                        (     109.271 eV)
   209     209      2.000     -10.066 au  C             1.00      1 S               9
                        (    -273.921 eV)
   210     210      2.000      -0.501 au  C             1.00      2 S               9
                        (     -13.620 eV)
   211     211       --         0.373 au  C             1.00      3 S               9
                        (      10.158 eV)
   212     212       --         5.405 au  C             1.00      4 S               9
                        (     147.073 eV)
   213     213       --        49.848 au  C             1.00      5 S               9
                        (    1356.422 eV)
   214     214      0.667      -0.193 au  C             1.00      1 P:x             9
                        (      -5.239 eV)
   215     215       --         0.169 au  C             1.00      2 P:x             9
                        (       4.589 eV)
   216     216       --         2.013 au  C             1.00      3 P:x             9
                        (      54.789 eV)
   217     217      0.667      -0.193 au  C             1.00      1 P:y             9
                        (      -5.239 eV)
   218     218       --         0.169 au  C             1.00      2 P:y             9
                        (       4.589 eV)
   219     219       --         2.013 au  C             1.00      3 P:y             9
                        (      54.789 eV)
   220     220      0.667      -0.193 au  C             1.00      1 P:z             9
                        (      -5.239 eV)
   221     221       --         0.169 au  C             1.00      2 P:z             9
                        (       4.589 eV)
   222     222       --         2.013 au  C             1.00      3 P:z             9
                        (      54.789 eV)
   223     223       --         1.243 au  C             1.00      1 D:z2            9
                        (      33.824 eV)
   224     224       --         1.243 au  C             1.00      1 D:x2-y2         9
                        (      33.824 eV)
   225     225       --         1.243 au  C             1.00      1 D:xy            9
                        (      33.824 eV)
   226     226       --         1.243 au  C             1.00      1 D:xz            9
                        (      33.824 eV)
   227     227       --         1.243 au  C             1.00      1 D:yz            9
                        (      33.824 eV)
   228     228       --         4.016 au  C             1.00      1 F:z3            9
                        (     109.271 eV)
   229     229       --         4.016 au  C             1.00      1 F:z             9
                        (     109.271 eV)
   230     230       --         4.016 au  C             1.00      1 F:xyz           9
                        (     109.271 eV)
   231     231       --         4.016 au  C             1.00      1 F:z2x           9
                        (     109.271 eV)
   232     232       --         4.016 au  C             1.00      1 F:z2y           9
                        (     109.271 eV)
   233     233       --         4.016 au  C             1.00      1 F:x             9
                        (     109.271 eV)
   234     234       --         4.016 au  C             1.00      1 F:y             9
                        (     109.271 eV)
   235     235      2.000     -10.066 au  C             1.00      1 S              10
                        (    -273.921 eV)
   236     236      2.000      -0.501 au  C             1.00      2 S              10
                        (     -13.620 eV)
   237     237       --         0.373 au  C             1.00      3 S              10
                        (      10.158 eV)
   238     238       --         5.405 au  C             1.00      4 S              10
                        (     147.073 eV)
   239     239       --        49.848 au  C             1.00      5 S              10
                        (    1356.422 eV)
   240     240      0.667      -0.193 au  C             1.00      1 P:x            10
                        (      -5.239 eV)
   241     241       --         0.169 au  C             1.00      2 P:x            10
                        (       4.589 eV)
   242     242       --         2.013 au  C             1.00      3 P:x            10
                        (      54.789 eV)
   243     243      0.667      -0.193 au  C             1.00      1 P:y            10
                        (      -5.239 eV)
   244     244       --         0.169 au  C             1.00      2 P:y            10
                        (       4.589 eV)
   245     245       --         2.013 au  C             1.00      3 P:y            10
                        (      54.789 eV)
   246     246      0.667      -0.193 au  C             1.00      1 P:z            10
                        (      -5.239 eV)
   247     247       --         0.169 au  C             1.00      2 P:z            10
                        (       4.589 eV)
   248     248       --         2.013 au  C             1.00      3 P:z            10
                        (      54.789 eV)
   249     249       --         1.243 au  C             1.00      1 D:z2           10
                        (      33.824 eV)
   250     250       --         1.243 au  C             1.00      1 D:x2-y2        10
                        (      33.824 eV)
   251     251       --         1.243 au  C             1.00      1 D:xy           10
                        (      33.824 eV)
   252     252       --         1.243 au  C             1.00      1 D:xz           10
                        (      33.824 eV)
   253     253       --         1.243 au  C             1.00      1 D:yz           10
                        (      33.824 eV)
   254     254       --         4.016 au  C             1.00      1 F:z3           10
                        (     109.271 eV)
   255     255       --         4.016 au  C             1.00      1 F:z            10
                        (     109.271 eV)
   256     256       --         4.016 au  C             1.00      1 F:xyz          10
                        (     109.271 eV)
   257     257       --         4.016 au  C             1.00      1 F:z2x          10
                        (     109.271 eV)
   258     258       --         4.016 au  C             1.00      1 F:z2y          10
                        (     109.271 eV)
   259     259       --         4.016 au  C             1.00      1 F:x            10
                        (     109.271 eV)
   260     260       --         4.016 au  C             1.00      1 F:y            10
                        (     109.271 eV)
   261     261      2.000     -10.066 au  C             1.00      1 S              11
                        (    -273.921 eV)
   262     262      2.000      -0.501 au  C             1.00      2 S              11
                        (     -13.620 eV)
   263     263       --         0.373 au  C             1.00      3 S              11
                        (      10.158 eV)
   264     264       --         5.405 au  C             1.00      4 S              11
                        (     147.073 eV)
   265     265       --        49.848 au  C             1.00      5 S              11
                        (    1356.422 eV)
   266     266      0.667      -0.193 au  C             1.00      1 P:x            11
                        (      -5.239 eV)
   267     267       --         0.169 au  C             1.00      2 P:x            11
                        (       4.589 eV)
   268     268       --         2.013 au  C             1.00      3 P:x            11
                        (      54.789 eV)
   269     269      0.667      -0.193 au  C             1.00      1 P:y            11
                        (      -5.239 eV)
   270     270       --         0.169 au  C             1.00      2 P:y            11
                        (       4.589 eV)
   271     271       --         2.013 au  C             1.00      3 P:y            11
                        (      54.789 eV)
   272     272      0.667      -0.193 au  C             1.00      1 P:z            11
                        (      -5.239 eV)
   273     273       --         0.169 au  C             1.00      2 P:z            11
                        (       4.589 eV)
   274     274       --         2.013 au  C             1.00      3 P:z            11
                        (      54.789 eV)
   275     275       --         1.243 au  C             1.00      1 D:z2           11
                        (      33.824 eV)
   276     276       --         1.243 au  C             1.00      1 D:x2-y2        11
                        (      33.824 eV)
   277     277       --         1.243 au  C             1.00      1 D:xy           11
                        (      33.824 eV)
   278     278       --         1.243 au  C             1.00      1 D:xz           11
                        (      33.824 eV)
   279     279       --         1.243 au  C             1.00      1 D:yz           11
                        (      33.824 eV)
   280     280       --         4.016 au  C             1.00      1 F:z3           11
                        (     109.271 eV)
   281     281       --         4.016 au  C             1.00      1 F:z            11
                        (     109.271 eV)
   282     282       --         4.016 au  C             1.00      1 F:xyz          11
                        (     109.271 eV)
   283     283       --         4.016 au  C             1.00      1 F:z2x          11
                        (     109.271 eV)
   284     284       --         4.016 au  C             1.00      1 F:z2y          11
                        (     109.271 eV)
   285     285       --         4.016 au  C             1.00      1 F:x            11
                        (     109.271 eV)
   286     286       --         4.016 au  C             1.00      1 F:y            11
                        (     109.271 eV)
   287     287      2.000     -10.066 au  C             1.00      1 S              12
                        (    -273.921 eV)
   288     288      2.000      -0.501 au  C             1.00      2 S              12
                        (     -13.620 eV)
   289     289       --         0.373 au  C             1.00      3 S              12
                        (      10.158 eV)
   290     290       --         5.405 au  C             1.00      4 S              12
                        (     147.073 eV)
   291     291       --        49.848 au  C             1.00      5 S              12
                        (    1356.422 eV)
   292     292      0.667      -0.193 au  C             1.00      1 P:x            12
                        (      -5.239 eV)
   293     293       --         0.169 au  C             1.00      2 P:x            12
                        (       4.589 eV)
   294     294       --         2.013 au  C             1.00      3 P:x            12
                        (      54.789 eV)
   295     295      0.667      -0.193 au  C             1.00      1 P:y            12
                        (      -5.239 eV)
   296     296       --         0.169 au  C             1.00      2 P:y            12
                        (       4.589 eV)
   297     297       --         2.013 au  C             1.00      3 P:y            12
                        (      54.789 eV)
   298     298      0.667      -0.193 au  C             1.00      1 P:z            12
                        (      -5.239 eV)
   299     299       --         0.169 au  C             1.00      2 P:z            12
                        (       4.589 eV)
   300     300       --         2.013 au  C             1.00      3 P:z            12
                        (      54.789 eV)
   301     301       --         1.243 au  C             1.00      1 D:z2           12
                        (      33.824 eV)
   302     302       --         1.243 au  C             1.00      1 D:x2-y2        12
                        (      33.824 eV)
   303     303       --         1.243 au  C             1.00      1 D:xy           12
                        (      33.824 eV)
   304     304       --         1.243 au  C             1.00      1 D:xz           12
                        (      33.824 eV)
   305     305       --         1.243 au  C             1.00      1 D:yz           12
                        (      33.824 eV)
   306     306       --         4.016 au  C             1.00      1 F:z3           12
                        (     109.271 eV)
   307     307       --         4.016 au  C             1.00      1 F:z            12
                        (     109.271 eV)
   308     308       --         4.016 au  C             1.00      1 F:xyz          12
                        (     109.271 eV)
   309     309       --         4.016 au  C             1.00      1 F:z2x          12
                        (     109.271 eV)
   310     310       --         4.016 au  C             1.00      1 F:z2y          12
                        (     109.271 eV)
   311     311       --         4.016 au  C             1.00      1 F:x            12
                        (     109.271 eV)
   312     312       --         4.016 au  C             1.00      1 F:y            12
                        (     109.271 eV)
   313     313      2.000     -10.066 au  C             1.00      1 S              13
                        (    -273.921 eV)
   314     314      2.000      -0.501 au  C             1.00      2 S              13
                        (     -13.620 eV)
   315     315       --         0.373 au  C             1.00      3 S              13
                        (      10.158 eV)
   316     316       --         5.405 au  C             1.00      4 S              13
                        (     147.073 eV)
   317     317       --        49.848 au  C             1.00      5 S              13
                        (    1356.422 eV)
   318     318      0.667      -0.193 au  C             1.00      1 P:x            13
                        (      -5.239 eV)
   319     319       --         0.169 au  C             1.00      2 P:x            13
                        (       4.589 eV)
   320     320       --         2.013 au  C             1.00      3 P:x            13
                        (      54.789 eV)
   321     321      0.667      -0.193 au  C             1.00      1 P:y            13
                        (      -5.239 eV)
   322     322       --         0.169 au  C             1.00      2 P:y            13
                        (       4.589 eV)
   323     323       --         2.013 au  C             1.00      3 P:y            13
                        (      54.789 eV)
   324     324      0.667      -0.193 au  C             1.00      1 P:z            13
                        (      -5.239 eV)
   325     325       --         0.169 au  C             1.00      2 P:z            13
                        (       4.589 eV)
   326     326       --         2.013 au  C             1.00      3 P:z            13
                        (      54.789 eV)
   327     327       --         1.243 au  C             1.00      1 D:z2           13
                        (      33.824 eV)
   328     328       --         1.243 au  C             1.00      1 D:x2-y2        13
                        (      33.824 eV)
   329     329       --         1.243 au  C             1.00      1 D:xy           13
                        (      33.824 eV)
   330     330       --         1.243 au  C             1.00      1 D:xz           13
                        (      33.824 eV)
   331     331       --         1.243 au  C             1.00      1 D:yz           13
                        (      33.824 eV)
   332     332       --         4.016 au  C             1.00      1 F:z3           13
                        (     109.271 eV)
   333     333       --         4.016 au  C             1.00      1 F:z            13
                        (     109.271 eV)
   334     334       --         4.016 au  C             1.00      1 F:xyz          13
                        (     109.271 eV)
   335     335       --         4.016 au  C             1.00      1 F:z2x          13
                        (     109.271 eV)
   336     336       --         4.016 au  C             1.00      1 F:z2y          13
                        (     109.271 eV)
   337     337       --         4.016 au  C             1.00      1 F:x            13
                        (     109.271 eV)
   338     338       --         4.016 au  C             1.00      1 F:y            13
                        (     109.271 eV)
   339     339      2.000     -10.066 au  C             1.00      1 S              14
                        (    -273.921 eV)
   340     340      2.000      -0.501 au  C             1.00      2 S              14
                        (     -13.620 eV)
   341     341       --         0.373 au  C             1.00      3 S              14
                        (      10.158 eV)
   342     342       --         5.405 au  C             1.00      4 S              14
                        (     147.073 eV)
   343     343       --        49.848 au  C             1.00      5 S              14
                        (    1356.422 eV)
   344     344      0.667      -0.193 au  C             1.00      1 P:x            14
                        (      -5.239 eV)
   345     345       --         0.169 au  C             1.00      2 P:x            14
                        (       4.589 eV)
   346     346       --         2.013 au  C             1.00      3 P:x            14
                        (      54.789 eV)
   347     347      0.667      -0.193 au  C             1.00      1 P:y            14
                        (      -5.239 eV)
   348     348       --         0.169 au  C             1.00      2 P:y            14
                        (       4.589 eV)
   349     349       --         2.013 au  C             1.00      3 P:y            14
                        (      54.789 eV)
   350     350      0.667      -0.193 au  C             1.00      1 P:z            14
                        (      -5.239 eV)
   351     351       --         0.169 au  C             1.00      2 P:z            14
                        (       4.589 eV)
   352     352       --         2.013 au  C             1.00      3 P:z            14
                        (      54.789 eV)
   353     353       --         1.243 au  C             1.00      1 D:z2           14
                        (      33.824 eV)
   354     354       --         1.243 au  C             1.00      1 D:x2-y2        14
                        (      33.824 eV)
   355     355       --         1.243 au  C             1.00      1 D:xy           14
                        (      33.824 eV)
   356     356       --         1.243 au  C             1.00      1 D:xz           14
                        (      33.824 eV)
   357     357       --         1.243 au  C             1.00      1 D:yz           14
                        (      33.824 eV)
   358     358       --         4.016 au  C             1.00      1 F:z3           14
                        (     109.271 eV)
   359     359       --         4.016 au  C             1.00      1 F:z            14
                        (     109.271 eV)
   360     360       --         4.016 au  C             1.00      1 F:xyz          14
                        (     109.271 eV)
   361     361       --         4.016 au  C             1.00      1 F:z2x          14
                        (     109.271 eV)
   362     362       --         4.016 au  C             1.00      1 F:z2y          14
                        (     109.271 eV)
   363     363       --         4.016 au  C             1.00      1 F:x            14
                        (     109.271 eV)
   364     364       --         4.016 au  C             1.00      1 F:y            14
                        (     109.271 eV)
   365     365      2.000     -24.402 au  F             1.00      1 S              15
                        (    -664.014 eV)
   366     366      2.000      -1.095 au  F             1.00      2 S              15
                        (     -29.785 eV)
   367     367       --         0.023 au  F             1.00      3 S              15
                        (       0.624 eV)
   368     368       --         1.576 au  F             1.00      4 S              15
                        (      42.880 eV)
   369     369       --        47.803 au  F             1.00      5 S              15
                        (    1300.785 eV)
   370     370      1.667      -0.409 au  F             1.00      1 P:x            15
                        (     -11.127 eV)
   371     371       --         0.428 au  F             1.00      2 P:x            15
                        (      11.654 eV)
   372     372       --         4.556 au  F             1.00      3 P:x            15
                        (     123.977 eV)
   373     373      1.667      -0.409 au  F             1.00      1 P:y            15
                        (     -11.127 eV)
   374     374       --         0.428 au  F             1.00      2 P:y            15
                        (      11.654 eV)
   375     375       --         4.556 au  F             1.00      3 P:y            15
                        (     123.977 eV)
   376     376      1.667      -0.409 au  F             1.00      1 P:z            15
                        (     -11.127 eV)
   377     377       --         0.428 au  F             1.00      2 P:z            15
                        (      11.654 eV)
   378     378       --         4.556 au  F             1.00      3 P:z            15
                        (     123.977 eV)
   379     379       --         1.117 au  F             1.00      1 D:z2           15
                        (      30.390 eV)
   380     380       --         1.117 au  F             1.00      1 D:x2-y2        15
                        (      30.390 eV)
   381     381       --         1.117 au  F             1.00      1 D:xy           15
                        (      30.390 eV)
   382     382       --         1.117 au  F             1.00      1 D:xz           15
                        (      30.390 eV)
   383     383       --         1.117 au  F             1.00      1 D:yz           15
                        (      30.390 eV)
   384     384       --         3.416 au  F             1.00      1 F:z3           15
                        (      92.949 eV)
   385     385       --         3.416 au  F             1.00      1 F:z            15
                        (      92.949 eV)
   386     386       --         3.416 au  F             1.00      1 F:xyz          15
                        (      92.949 eV)
   387     387       --         3.416 au  F             1.00      1 F:z2x          15
                        (      92.949 eV)
   388     388       --         3.416 au  F             1.00      1 F:z2y          15
                        (      92.949 eV)
   389     389       --         3.416 au  F             1.00      1 F:x            15
                        (      92.949 eV)
   390     390       --         3.416 au  F             1.00      1 F:y            15
                        (      92.949 eV)
   391     391      2.000     -24.402 au  F             1.00      1 S              16
                        (    -664.014 eV)
   392     392      2.000      -1.095 au  F             1.00      2 S              16
                        (     -29.785 eV)
   393     393       --         0.023 au  F             1.00      3 S              16
                        (       0.624 eV)
   394     394       --         1.576 au  F             1.00      4 S              16
                        (      42.880 eV)
   395     395       --        47.803 au  F             1.00      5 S              16
                        (    1300.785 eV)
   396     396      1.667      -0.409 au  F             1.00      1 P:x            16
                        (     -11.127 eV)
   397     397       --         0.428 au  F             1.00      2 P:x            16
                        (      11.654 eV)
   398     398       --         4.556 au  F             1.00      3 P:x            16
                        (     123.977 eV)
   399     399      1.667      -0.409 au  F             1.00      1 P:y            16
                        (     -11.127 eV)
   400     400       --         0.428 au  F             1.00      2 P:y            16
                        (      11.654 eV)
   401     401       --         4.556 au  F             1.00      3 P:y            16
                        (     123.977 eV)
   402     402      1.667      -0.409 au  F             1.00      1 P:z            16
                        (     -11.127 eV)
   403     403       --         0.428 au  F             1.00      2 P:z            16
                        (      11.654 eV)
   404     404       --         4.556 au  F             1.00      3 P:z            16
                        (     123.977 eV)
   405     405       --         1.117 au  F             1.00      1 D:z2           16
                        (      30.390 eV)
   406     406       --         1.117 au  F             1.00      1 D:x2-y2        16
                        (      30.390 eV)
   407     407       --         1.117 au  F             1.00      1 D:xy           16
                        (      30.390 eV)
   408     408       --         1.117 au  F             1.00      1 D:xz           16
                        (      30.390 eV)
   409     409       --         1.117 au  F             1.00      1 D:yz           16
                        (      30.390 eV)
   410     410       --         3.416 au  F             1.00      1 F:z3           16
                        (      92.949 eV)
   411     411       --         3.416 au  F             1.00      1 F:z            16
                        (      92.949 eV)
   412     412       --         3.416 au  F             1.00      1 F:xyz          16
                        (      92.949 eV)
   413     413       --         3.416 au  F             1.00      1 F:z2x          16
                        (      92.949 eV)
   414     414       --         3.416 au  F             1.00      1 F:z2y          16
                        (      92.949 eV)
   415     415       --         3.416 au  F             1.00      1 F:x            16
                        (      92.949 eV)
   416     416       --         3.416 au  F             1.00      1 F:y            16
                        (      92.949 eV)
   417     417      2.000     -24.402 au  F             1.00      1 S              17
                        (    -664.014 eV)
   418     418      2.000      -1.095 au  F             1.00      2 S              17
                        (     -29.785 eV)
   419     419       --         0.023 au  F             1.00      3 S              17
                        (       0.624 eV)
   420     420       --         1.576 au  F             1.00      4 S              17
                        (      42.880 eV)
   421     421       --        47.803 au  F             1.00      5 S              17
                        (    1300.785 eV)
   422     422      1.667      -0.409 au  F             1.00      1 P:x            17
                        (     -11.127 eV)
   423     423       --         0.428 au  F             1.00      2 P:x            17
                        (      11.654 eV)
   424     424       --         4.556 au  F             1.00      3 P:x            17
                        (     123.977 eV)
   425     425      1.667      -0.409 au  F             1.00      1 P:y            17
                        (     -11.127 eV)
   426     426       --         0.428 au  F             1.00      2 P:y            17
                        (      11.654 eV)
   427     427       --         4.556 au  F             1.00      3 P:y            17
                        (     123.977 eV)
   428     428      1.667      -0.409 au  F             1.00      1 P:z            17
                        (     -11.127 eV)
   429     429       --         0.428 au  F             1.00      2 P:z            17
                        (      11.654 eV)
   430     430       --         4.556 au  F             1.00      3 P:z            17
                        (     123.977 eV)
   431     431       --         1.117 au  F             1.00      1 D:z2           17
                        (      30.390 eV)
   432     432       --         1.117 au  F             1.00      1 D:x2-y2        17
                        (      30.390 eV)
   433     433       --         1.117 au  F             1.00      1 D:xy           17
                        (      30.390 eV)
   434     434       --         1.117 au  F             1.00      1 D:xz           17
                        (      30.390 eV)
   435     435       --         1.117 au  F             1.00      1 D:yz           17
                        (      30.390 eV)
   436     436       --         3.416 au  F             1.00      1 F:z3           17
                        (      92.949 eV)
   437     437       --         3.416 au  F             1.00      1 F:z            17
                        (      92.949 eV)
   438     438       --         3.416 au  F             1.00      1 F:xyz          17
                        (      92.949 eV)
   439     439       --         3.416 au  F             1.00      1 F:z2x          17
                        (      92.949 eV)
   440     440       --         3.416 au  F             1.00      1 F:z2y          17
                        (      92.949 eV)
   441     441       --         3.416 au  F             1.00      1 F:x            17
                        (      92.949 eV)
   442     442       --         3.416 au  F             1.00      1 F:y            17
                        (      92.949 eV)
   443     443      1.000      -0.240 au  H             1.00      1 S              18
                        (      -6.532 eV)
   444     444       --         0.088 au  H             1.00      2 S              18
                        (       2.394 eV)
   445     445       --         1.502 au  H             1.00      3 S              18
                        (      40.869 eV)
   446     446       --         0.406 au  H             1.00      1 P:x            18
                        (      11.051 eV)
   447     447       --         0.406 au  H             1.00      1 P:y            18
                        (      11.051 eV)
   448     448       --         0.406 au  H             1.00      1 P:z            18
                        (      11.051 eV)
   449     449       --         2.569 au  H             1.00      1 D:z2           18
                        (      69.917 eV)
   450     450       --         2.569 au  H             1.00      1 D:x2-y2        18
                        (      69.917 eV)
   451     451       --         2.569 au  H             1.00      1 D:xy           18
                        (      69.917 eV)
   452     452       --         2.569 au  H             1.00      1 D:xz           18
                        (      69.917 eV)
   453     453       --         2.569 au  H             1.00      1 D:yz           18
                        (      69.917 eV)
   454     454      1.000      -0.240 au  H             1.00      1 S              19
                        (      -6.532 eV)
   455     455       --         0.088 au  H             1.00      2 S              19
                        (       2.394 eV)
   456     456       --         1.502 au  H             1.00      3 S              19
                        (      40.869 eV)
   457     457       --         0.406 au  H             1.00      1 P:x            19
                        (      11.051 eV)
   458     458       --         0.406 au  H             1.00      1 P:y            19
                        (      11.051 eV)
   459     459       --         0.406 au  H             1.00      1 P:z            19
                        (      11.051 eV)
   460     460       --         2.569 au  H             1.00      1 D:z2           19
                        (      69.917 eV)
   461     461       --         2.569 au  H             1.00      1 D:x2-y2        19
                        (      69.917 eV)
   462     462       --         2.569 au  H             1.00      1 D:xy           19
                        (      69.917 eV)
   463     463       --         2.569 au  H             1.00      1 D:xz           19
                        (      69.917 eV)
   464     464       --         2.569 au  H             1.00      1 D:yz           19
                        (      69.917 eV)
   465     465      1.000      -0.240 au  H             1.00      1 S              20
                        (      -6.532 eV)
   466     466       --         0.088 au  H             1.00      2 S              20
                        (       2.394 eV)
   467     467       --         1.502 au  H             1.00      3 S              20
                        (      40.869 eV)
   468     468       --         0.406 au  H             1.00      1 P:x            20
                        (      11.051 eV)
[...]
                                    1.41%     1 P:y            -5.239  0.67    10 C
                                    1.40%     1 S              -6.532  1.00    24 H
                                   -1.27%     3 S               0.624  0.00    16 F
                                   -1.24%     2 P:z             4.589  0.00     7 C
                                    1.23%     2 S             -13.620  2.00     8 C
                                    1.13%     1 P:x            -5.239  0.67    14 C
                                   -1.06%     2 P:y             4.589  0.00    13 C
                                    1.01%     1 P:x            -5.239  0.67     5 C



 =======================================================================
 Electrostatic potential at the Nuclei due to electrons and other nuclei
 =======================================================================
  
         Atom                  Potential
         ----                  ---------
     1)   C                  14.74903903
     2)   C                  14.76238183
     3)   C                  14.77799314
     4)   C                  14.77972792
     5)   C                  14.78006884
     6)   C                  14.78161796
     7)   C                  14.78215030
     8)   C                  14.76352256
     9)   C                  14.77724866
    10)   C                  14.78255525
    11)   C                  14.76535125
    12)   C                  14.78123871
    13)   C                  14.75966072
    14)   C                  14.54131992
    15)   F                  26.62912221
    16)   F                  26.62551344
    17)   F                  26.62327084
    18)   H                   1.09801342
    19)   H                   1.09980310
    20)   H                   1.09986818
    21)   H                   1.10231242
    22)   H                   1.10574846
    23)   H                   1.10884642
    24)   H                   1.11727640
    25)   H                   1.11141362
    26)   H                   1.11785414
    27)   H                   1.12195156
    28)   H                   1.11390586
    29)   H                   1.11233705
    30)   H                   1.11492989
 Mulliken charges used for AMS results%charges...


    =====================
     CALCULATION RESULTS
    =====================

Energy (hartree)            -6.52044203


--------------
Atomic charges
--------------
  Index   Atom    Charge
      1      C    0.0563
      2      C   -0.0410
      3      C    0.2468
      4      C    0.2124
      5      C    0.2117
      6      C    0.2171
      7      C    0.2614
      8      C    0.1766
      9      C    0.4227
     10      C    0.4220
     11      C    0.1852
     12      C    0.4207
     13      C   -0.1363
     14      C    1.2392
     15      F   -0.4173
     16      F   -0.4204
     17      F   -0.4139
     18      H   -0.2103
     19      H   -0.2234
     20      H   -0.2119
     21      H   -0.2189
     22      H   -0.2084
     23      H   -0.1826
     24      H   -0.1818
     25      H   -0.1971
     26      H   -0.1955
     27      H   -0.1941
     28      H   -0.1753
     29      H   -0.2252
     30      H   -0.2185


Dipole moment vector    (Debye):     1.92453409    1.58571074   -1.41966378
              magnitude (Debye):     2.86945208


-----------------------
Molecular orbitals info
-----------------------
n orbitals:              585
n spin:                    1

Note: only printing virtual orbitals with
      energy smaller than HOMO + 100. eV

HOMO (eV):              -5.6757
LUMO (eV):              -2.6748
HOMO-LUMO gap (eV):      3.0009

   Index   Energy (eV)    Occupation
     367       94.2702         0.000       
     366       94.0032         0.000       
     365       93.7654         0.000       
     364       93.2987         0.000       
     363       93.0938         0.000       
     362       92.7790         0.000       
     361       92.6343         0.000       
     360       92.2864         0.000       
     359       92.1956         0.000       
     358       91.6427         0.000       
     357       91.5685         0.000       
     356       91.1409         0.000       
     355       90.8621         0.000       
     354       90.4180         0.000       
     353       89.8964         0.000       
     352       89.7551         0.000       
     351       88.9690         0.000       
     350       88.4229         0.000       
     349       88.1222         0.000       
     348       87.7052         0.000       
     347       87.4634         0.000       
     346       87.0644         0.000       
     345       86.5070         0.000       
     344       86.0870         0.000       
     343       85.3773         0.000       
     342       84.9907         0.000       
     341       84.7407         0.000       
     340       84.2817         0.000       
     339       83.8426         0.000       
     338       83.3663         0.000       
     337       82.9655         0.000       
     336       82.7038         0.000       
     335       82.5261         0.000       
     334       81.9857         0.000       
     333       81.7678         0.000       
     332       81.4144         0.000       
     331       80.8859         0.000       
     330       80.4234         0.000       
     329       80.2048         0.000       
     328       79.8079         0.000       
     327       79.1606         0.000       
     326       78.8547         0.000       
     325       78.4879         0.000       
     324       78.0463         0.000       
     323       77.9198         0.000       
     322       77.7090         0.000       
     321       77.3296         0.000       
     320       76.6637         0.000       
     319       76.3755         0.000       
     318       76.2237         0.000       
     317       75.7863         0.000       
     316       75.4600         0.000       
     315       74.9371         0.000       
     314       74.7580         0.000       
     313       74.2788         0.000       
     312       73.9090         0.000       
     311       73.7077         0.000       
     310       73.3039         0.000       
     309       72.8113         0.000       
     308       72.2870         0.000       
     307       71.7584         0.000       
     306       71.5581         0.000       
     305       70.9313         0.000       
     304       70.8107         0.000       
     303       70.0781         0.000       
     302       69.1123         0.000       
     301       68.2396         0.000       
     300       68.0934         0.000       
     299       67.8902         0.000       
     298       67.3383         0.000       
     297       66.9724         0.000       
     296       66.6702         0.000       
     295       66.4030         0.000       
     294       65.4963         0.000       
     293       65.0360         0.000       
     292       64.9067         0.000       
     291       64.4865         0.000       
     290       64.3537         0.000       
     289       63.9874         0.000       
     288       63.4967         0.000       
     287       63.3478         0.000       
     286       62.7052         0.000       
     285       62.4531         0.000       
     284       61.9059         0.000       
     283       61.3098         0.000       
     282       61.0123         0.000       
     281       60.3838         0.000       
     280       59.9327         0.000       
     279       59.3070         0.000       
     278       59.1839         0.000       
     277       58.7727         0.000       
     276       58.3853         0.000       
     275       57.8701         0.000       
     274       57.3187         0.000       
     273       56.6793         0.000       
     272       56.1858         0.000       
     271       56.1300         0.000       
     270       55.6881         0.000       
     269       55.2154         0.000       
     268       54.9976         0.000       
     267       54.6750         0.000       
     266       53.8282         0.000       
     265       53.2708         0.000       
     264       52.9117         0.000       
     263       52.7185         0.000       
     262       52.2172         0.000       
     261       52.0363         0.000       
     260       51.8907         0.000       
     259       51.5612         0.000       
     258       51.1313         0.000       
     257       50.7046         0.000       
     256       50.5826         0.000       
     255       50.3577         0.000       
     254       50.0334         0.000       
     253       49.8520         0.000       
     252       49.4055         0.000       
     251       48.9242         0.000       
     250       48.7381         0.000       
     249       48.4634         0.000       
     248       47.9203         0.000       
     247       47.4165         0.000       
     246       46.9257         0.000       
     245       46.4018         0.000       
     244       46.0459         0.000       
     243       45.7310         0.000       
     242       45.3947         0.000       
     241       45.1888         0.000       
     240       44.8029         0.000       
     239       44.7328         0.000       
     238       44.2199         0.000       
     237       43.7742         0.000       
     236       43.4905         0.000       
     235       42.7195         0.000       
     234       42.4591         0.000       
     233       42.2923         0.000       
     232       41.4849         0.000       
     231       41.2940         0.000       
     230       40.9892         0.000       
     229       40.6366         0.000       
     228       40.4828         0.000       
     227       40.2379         0.000       
     226       39.7484         0.000       
     225       39.5578         0.000       
     224       39.2850         0.000       
     223       39.1030         0.000       
     222       38.8401         0.000       
     221       38.8033         0.000       
     220       38.1666         0.000       
     219       38.0580         0.000       
     218       37.8430         0.000       
     217       37.6869         0.000       
     216       37.0318         0.000       
     215       36.5937         0.000       
     214       36.5627         0.000       
     213       36.2760         0.000       
     212       36.0747         0.000       
     211       35.8207         0.000       
     210       35.6944         0.000       
     209       35.3186         0.000       
     208       35.0613         0.000       
     207       34.8316         0.000       
     206       34.5496         0.000       
     205       33.8911         0.000       
     204       33.8460         0.000       
     203       33.3594         0.000       
     202       33.1285         0.000       
     201       33.0668         0.000       
     200       32.8475         0.000       
     199       32.2952         0.000       
     198       31.7763         0.000       
     197       31.6399         0.000       
     196       31.2666         0.000       
     195       31.1581         0.000       
     194       30.7782         0.000       
     193       30.6409         0.000       
     192       30.2527         0.000       
     191       29.9628         0.000       
     190       29.6803         0.000       
     189       29.3576         0.000       
     188       29.0853         0.000       
     187       28.5139         0.000       
     186       28.4426         0.000       
     185       28.0217         0.000       
     184       27.6952         0.000       
     183       27.4164         0.000       
     182       27.1941         0.000       
     181       26.9916         0.000       
     180       26.7779         0.000       
     179       26.3363         0.000       
     178       26.0591         0.000       
     177       25.8747         0.000       
     176       25.7244         0.000       
     175       25.5626         0.000       
     174       24.8817         0.000       
     173       24.6553         0.000       
     172       24.4681         0.000       
     171       23.9343         0.000       
     170       23.7237         0.000       
     169       23.6427         0.000       
     168       23.2643         0.000       
     167       22.9101         0.000       
     166       22.7555         0.000       
     165       22.3719         0.000       
     164       22.2145         0.000       
     163       21.6452         0.000       
     162       21.4000         0.000       
     161       20.7353         0.000       
     160       20.4809         0.000       
     159       20.2303         0.000       
     158       20.0541         0.000       
     157       19.7636         0.000       
     156       19.5939         0.000       
     155       19.3693         0.000       
     154       18.8314         0.000       
     153       18.5289         0.000       
     152       18.3390         0.000       
     151       18.1776         0.000       
     150       17.5957         0.000       
     149       17.3860         0.000       
     148       16.8480         0.000       
     147       16.5243         0.000       
     146       16.3630         0.000       
     145       16.0481         0.000       
     144       15.6763         0.000       
     143       15.0614         0.000       
     142       14.5087         0.000       
     141       14.3348         0.000       
     140       14.1393         0.000       
     139       13.9858         0.000       
     138       13.5900         0.000       
     137       13.1570         0.000       
     136       12.9616         0.000       
     135       12.8936         0.000       
     134       12.5593         0.000       
     133       12.5217         0.000       
     132       12.3398         0.000       
     131       12.1792         0.000       
     130       11.5742         0.000       
     129       11.4102         0.000       
     128       11.2823         0.000       
     127       11.0737         0.000       
     126       10.9057         0.000       
     125       10.5358         0.000       
     124       10.4478         0.000       
     123       10.3785         0.000       
     122        9.9527         0.000       
     121        9.8531         0.000       
     120        9.7907         0.000       
     119        9.5010         0.000       
     118        9.4443         0.000       
     117        9.2703         0.000       
     116        8.9959         0.000       
     115        8.8359         0.000       
     114        8.5821         0.000       
     113        8.5593         0.000       
     112        8.5187         0.000       
     111        8.0606         0.000       
     110        7.9259         0.000       
     109        7.7875         0.000       
     108        7.6535         0.000       
     107        7.3713         0.000       
     106        7.0992         0.000       
     105        6.9050         0.000       
     104        6.7271         0.000       
     103        6.6313         0.000       
     102        6.3588         0.000       
     101        6.0962         0.000       
     100        6.0398         0.000       
      99        5.8270         0.000       
      98        5.5620         0.000       
      97        5.2999         0.000       
      96        5.1840         0.000       
      95        5.0569         0.000       
      94        4.8346         0.000       
      93        4.7618         0.000       
      92        4.6085         0.000       
      91        4.5447         0.000       
      90        4.2872         0.000       
      89        4.1577         0.000       
      88        3.9972         0.000       
      87        3.8351         0.000       
      86        3.6200         0.000       
      85        3.4816         0.000       
      84        3.2812         0.000       
      83        3.0752         0.000       
      82        2.7877         0.000       
      81        2.6726         0.000       
      80        2.5481         0.000       
      79        2.4448         0.000       
      78        2.1596         0.000       
      77        2.1102         0.000       
      76        1.6274         0.000       
      75        1.4995         0.000       
      74        1.4224         0.000       
      73        1.2992         0.000       
      72        1.0319         0.000       
      71        0.7239         0.000       
      70        0.5941         0.000       
      69        0.5782         0.000       
      68        0.3043         0.000       
      67       -0.0956         0.000       
      66       -0.3533         0.000       
      65       -0.7638         0.000       
      64       -1.3125         0.000       
      63       -2.6748         0.000 < LUMO
      62       -5.6757         2.000 < HOMO
      61       -6.3966         2.000       
      60       -7.0779         2.000       
      59       -7.6596         2.000       
      58       -8.1993         2.000       
      57       -8.2482         2.000       
      56       -8.4455         2.000       
      55       -8.5656         2.000       
      54       -8.6892         2.000       
      53       -8.7371         2.000       
      52       -8.9128         2.000       
      51       -9.1468         2.000       
      50       -9.2489         2.000       
      49       -9.3758         2.000       
      48       -9.8289         2.000       
      47       -9.8664         2.000       
      46      -10.0192         2.000       
      45      -10.3337         2.000       
      44      -10.6925         2.000       
      43      -10.9010         2.000       
      42      -10.9880         2.000       
      41      -11.0523         2.000       
      40      -11.0905         2.000       
      39      -11.6237         2.000       
      38      -11.9199         2.000       
      37      -12.2497         2.000       
      36      -13.2552         2.000       
      35      -13.6613         2.000       
      34      -14.0064         2.000       
      33      -14.2468         2.000       
      32      -14.4248         2.000       
      31      -14.6088         2.000       
      30      -15.0947         2.000       
      29      -15.4420         2.000       
      28      -16.7846         2.000       
      27      -17.5976         2.000       
      26      -17.9689         2.000       
      25      -18.5125         2.000       
      24      -18.9689         2.000       
      23      -19.4472         2.000       
      22      -21.3333         2.000       
      21      -22.3479         2.000       
      20      -30.2534         2.000       
      19      -30.4262         2.000       
      18      -32.7109         2.000       
      17     -270.0941         2.000       
      16     -270.1576         2.000       
      15     -270.2279         2.000       
      14     -270.2354         2.000       
      13     -270.2389         2.000       
      12     -270.2786         2.000       
      11     -270.2893         2.000       
      10     -270.3349         2.000       
       9     -270.5546         2.000       
       8     -270.6065         2.000       
       7     -270.7159         2.000       
       6     -270.7904         2.000       
       5     -271.1062         2.000       
       4     -276.5203         2.000       
       3     -661.9985         2.000       
       2     -662.0862         2.000       
       1     -662.1511         2.000       

AMS application finished. Exiting.
NORMAL TERMINATION
     Total cpu time:     237.92
  Total system time:       1.27
 Total elapsed time:     240.52
NORMAL TERMINATION
