
 *******************************************************************************
 *                                                                             *
 *  --------------------------------                                           *
 *   Amsterdam Modeling Suite (AMS)              2026.103                      *
 *  --------------------------------                                           *
 *                                               r260501 2026-05-01 873454b5   *
 *                                                                             *
 *                                                                             *
 *                              =================                              *
 *                              |               |                              *
 *                              |     A M S     |                              *
 *                              |               |                              *
 *                              =================                              *
 *                                                                             *
 *                                                                             *
 *   Online information and documentation:  https://www.scm.com/support/       *
 *   E-mail:  support@scm.com   info@scm.com                                   *
 *                                                                             *
 *   Scientific publications using AMS results must be properly referenced     *
 *   See the User Manuals (or the web site) for recommended citations          *
 *   The terms and conditions of the End User License Agreement apply to       *
 *   the use of AMS, https://www.scm.com/license-terms/                        *
 *                                                                             *
 **********************  x86_64_linux_intel / intelmpi  ************************
 
 Licensed to: Jong-June Jeon / University of Seoul 2026-05-13 16:10:32
 SCM User ID: u30731
  
 AMS 2026.103  RunTime: Jun01-2026 01:14:53  ShM Nodes: 1  Procs: 1

 AMS jobname: c3_eda
 AMS jobid  : 2144759048

 Start   directory: /gpfs/home1/yeseo1ee/projects/eda-asm-prediction/adf_outputs/batch_001/dipolar_002098/
 Results directory: /gpfs/home1/yeseo1ee/projects/eda-asm-prediction/adf_outputs/batch_001/dipolar_002098/c3_eda.results/
 Scratch directory: /tmp/amstmp_c3_eda_kid0.2144759048/

 RNG seed: 1950943501 1855164779 -2035230843 -1407209060 225822063 1004666456 276908459 1038558843



                      ************************************************************************
                      *  ADF 2026.103  RunTime: Jun01-2026 01:14:53  ShM Nodes: 1  Procs: 1  *
                      ************************************************************************
  

       ****************************
       * SINGLE POINT CALCULATION *
       ****************************

--------
Geometry
--------
Formula: C23H22F3N3O
Atoms
  Index Symbol   x (angstrom)   y (angstrom)   z (angstrom)
      1      C    -2.98766000     2.05219000    -3.28212000 adf.f=fA
      2      N    -2.35902000     1.93590000    -1.97913000 adf.f=fA
      3      C    -2.30152000     0.75361000    -1.34050000 adf.f=fA
      4      O    -2.87431000    -0.25409000    -1.76319000 adf.f=fA
      5      C    -1.49343000     0.69635000    -0.06088000 adf.f=fA
      6      C    -2.21060000     0.29530000     1.18005000 adf.f=fA
      7      C    -3.19915000    -0.70545000     1.15536000 adf.f=fA
      8      C    -3.81490000    -1.11680000     2.33799000 adf.f=fA
      9      C    -3.46551000    -0.53976000     3.56208000 adf.f=fA
     10      C    -2.49531000     0.46716000     3.59237000 adf.f=fA
     11      C    -1.87646000     0.88414000     2.41484000 adf.f=fA
     12      N    -0.62792000     1.75342000     0.09333000 adf.f=fA
     13      N     0.51662000     1.96366000     0.02236000 adf.f=fA
     14      H    -2.91285000     3.09393000    -3.61590000 adf.f=fA
     15      H    -4.05007000     1.76786000    -3.23621000 adf.f=fA
     16      H    -2.48941000     1.40286000    -4.01954000 adf.f=fA
     17      H    -1.89940000     2.74866000    -1.58289000 adf.f=fA
     18      H    -3.46494000    -1.17193000     0.20971000 adf.f=fA
     19      H    -4.57484000    -1.90088000     2.29922000 adf.f=fA
     20      H    -3.94950000    -0.86699000     4.48501000 adf.f=fA
     21      H    -2.22033000     0.93802000     4.53898000 adf.f=fA
     22      H    -1.13166000     1.68020000     2.45847000 adf.f=fA
     23      C     1.40885000     0.09342000    -0.35770000 adf.f=fB
     24      C     2.26556000     0.09644000     0.85574000 adf.f=fB
     25      C     3.66872000     0.15935000     0.72989000 adf.f=fB
     26      C     4.49558000     0.19954000     1.85503000 adf.f=fB
     27      C     3.94465000     0.19764000     3.13887000 adf.f=fB
     28      C     2.55394000     0.16631000     3.28169000 adf.f=fB
     29      C     1.72742000     0.12140000     2.15885000 adf.f=fB
     30      C     2.01788000     0.37145000    -1.73655000 adf.f=fB
     31      C     2.62216000    -0.97829000    -2.24317000 adf.f=fB
     32      C     1.36078000    -1.81589000    -2.59128000 adf.f=fB
     33      C     0.19584000    -0.88278000    -2.14639000 adf.f=fB
     34      C     0.76391000     0.46844000    -2.61807000 adf.f=fB
     35      C     0.25789000    -0.71647000    -0.61517000 adf.f=fB
     36      C    -0.07898000    -1.94041000     0.18791000 adf.f=fB
     37      F     0.93806000    -2.84988000     0.17009000 adf.f=fB
     38      F    -1.15292000    -2.58188000    -0.32303000 adf.f=fB
     39      F    -0.33554000    -1.74009000     1.49226000 adf.f=fB
     40      H     4.12993000     0.17314000    -0.25684000 adf.f=fB
     41      H     5.57960000     0.23749000     1.72261000 adf.f=fB
     42      H     4.59113000     0.23182000     4.01890000 adf.f=fB
     43      H     2.10363000     0.18642000     4.27719000 adf.f=fB
     44      H     0.65006000     0.12433000     2.30194000 adf.f=fB
     45      H     2.71085000     1.22130000    -1.75993000 adf.f=fB
     46      H     3.24849000    -1.46334000    -1.48316000 adf.f=fB
     47      H     3.24894000    -0.79828000    -3.12899000 adf.f=fB
     48      H     1.27897000    -1.98387000    -3.67535000 adf.f=fB
     49      H     1.34169000    -2.79607000    -2.10155000 adf.f=fB
     50      H    -0.78544000    -1.17874000    -2.52705000 adf.f=fB
     51      H     0.99893000     0.46421000    -3.69205000 adf.f=fB
     52      H     0.13178000     1.33613000    -2.40428000 adf.f=fB

Total System Charge              0.00000


----------------
ADF Engine Input
----------------
 
   Basis
     Type TZ2P
     Core None
   End
   XC
     GGA BLYP
     Dispersion GRIMME3 BJDAMP
   End
   Symmetry NOSYM
   NumericalQuality Normal
   Unrestricted No
   SCF
     Iterations 200
     Converge 1.0e-6
   End
   fragments
     fA c1_fragA_ts.results/adf.rkf
     fB c2_fragB_ts.results/adf.rkf
   end
   etsnocv
     enocv 0.05
     ekmin 0.5
   end
   print etslowdin
   Save TAPE21
 

 Title: *** (NO TITLE) ***

 *** adf ***



 ===========================
 A T T A C H E D   F I L E S
 ===========================
  



 ===============================
 M O D E L   P A R A M E T E R S
 ===============================
  
 DENSITY FUNCTIONAL POTENTIAL (scf)
    LDA:                               Exchange only                           == Not Default ==
    Gradient Corrections:              Becke88 LYP                             == Not Default ==

 SPIN  (restricted / unrestr.)
    Molecule:                          Restricted                               
    Fragments:                         Restricted                               

 OTHER ASPECTS
    Relativistic Corrections:          scalar (ZORA,MAPA)                       

    Nuclear Charge Density Model:      Point Charge Nuclei                      
    Core Treatment:                    Frozen Orbital(s)                        

    Hyperfine or Zeeman Interaction:   ---                                      

 Settings for Grimme D3 dispersion correction

      damping                        BJ
      s6                          1.000
      s8                          2.700
      a1                          0.430
      a2                          4.236

 Other (technical) parameters

      alpha                      14.000
      version                         4
 


 Fragment File(s)
 ----------------
 fA:
         file : c1_fragA_ts.results/adf.rkf
         jobid: 1426466661
         title: *** adf ***
 fB:
         file : c2_fragB_ts.results/adf.rkf
         jobid: 861250562
         title: *** adf ***



 ===============
 G E O M E T R Y  ***  3D  Molecule  ***
 ===============
  

 ATOMS
 =====                            X Y Z                    CHARGE
                                (Angstrom)             Nucl     +Core       At.Mass
                       --------------------------    ----------------       -------
    1  C              -2.9877    2.0522   -3.2821      6.00      6.00       12.0000
    2  N              -2.3590    1.9359   -1.9791      7.00      7.00       14.0031
    3  C              -2.3015    0.7536   -1.3405      6.00      6.00       12.0000
    4  O              -2.8743   -0.2541   -1.7632      8.00      8.00       15.9949
    5  C              -1.4934    0.6963   -0.0609      6.00      6.00       12.0000
    6  C              -2.2106    0.2953    1.1801      6.00      6.00       12.0000
    7  C              -3.1991   -0.7054    1.1554      6.00      6.00       12.0000
    8  C              -3.8149   -1.1168    2.3380      6.00      6.00       12.0000
    9  C              -3.4655   -0.5398    3.5621      6.00      6.00       12.0000
   10  C              -2.4953    0.4672    3.5924      6.00      6.00       12.0000
   11  C              -1.8765    0.8841    2.4148      6.00      6.00       12.0000
   12  N              -0.6279    1.7534    0.0933      7.00      7.00       14.0031
   13  N               0.5166    1.9637    0.0224      7.00      7.00       14.0031
   14  H              -2.9129    3.0939   -3.6159      1.00      1.00        1.0078
   15  H              -4.0501    1.7679   -3.2362      1.00      1.00        1.0078
   16  H              -2.4894    1.4029   -4.0195      1.00      1.00        1.0078
   17  H              -1.8994    2.7487   -1.5829      1.00      1.00        1.0078
   18  H              -3.4649   -1.1719    0.2097      1.00      1.00        1.0078
   19  H              -4.5748   -1.9009    2.2992      1.00      1.00        1.0078
   20  H              -3.9495   -0.8670    4.4850      1.00      1.00        1.0078
   21  H              -2.2203    0.9380    4.5390      1.00      1.00        1.0078
   22  H              -1.1317    1.6802    2.4585      1.00      1.00        1.0078
   23  C               1.4088    0.0934   -0.3577      6.00      6.00       12.0000
   24  C               2.2656    0.0964    0.8557      6.00      6.00       12.0000
   25  C               3.6687    0.1593    0.7299      6.00      6.00       12.0000
   26  C               4.4956    0.1995    1.8550      6.00      6.00       12.0000
   27  C               3.9447    0.1976    3.1389      6.00      6.00       12.0000
   28  C               2.5539    0.1663    3.2817      6.00      6.00       12.0000
   29  C               1.7274    0.1214    2.1588      6.00      6.00       12.0000
   30  C               2.0179    0.3714   -1.7366      6.00      6.00       12.0000
   31  C               2.6222   -0.9783   -2.2432      6.00      6.00       12.0000
   32  C               1.3608   -1.8159   -2.5913      6.00      6.00       12.0000
   33  C               0.1958   -0.8828   -2.1464      6.00      6.00       12.0000
   34  C               0.7639    0.4684   -2.6181      6.00      6.00       12.0000
   35  C               0.2579   -0.7165   -0.6152      6.00      6.00       12.0000
   36  C              -0.0790   -1.9404    0.1879      6.00      6.00       12.0000
   37  F               0.9381   -2.8499    0.1701      9.00      9.00       18.9984
   38  F              -1.1529   -2.5819   -0.3230      9.00      9.00       18.9984
   39  F              -0.3355   -1.7401    1.4923      9.00      9.00       18.9984
   40  H               4.1299    0.1731   -0.2568      1.00      1.00        1.0078
   41  H               5.5796    0.2375    1.7226      1.00      1.00        1.0078
   42  H               4.5911    0.2318    4.0189      1.00      1.00        1.0078
   43  H               2.1036    0.1864    4.2772      1.00      1.00        1.0078
   44  H               0.6501    0.1243    2.3019      1.00      1.00        1.0078
   45  H               2.7109    1.2213   -1.7599      1.00      1.00        1.0078
   46  H               3.2485   -1.4633   -1.4832      1.00      1.00        1.0078
   47  H               3.2489   -0.7983   -3.1290      1.00      1.00        1.0078
   48  H               1.2790   -1.9839   -3.6753      1.00      1.00        1.0078
   49  H               1.3417   -2.7961   -2.1016      1.00      1.00        1.0078
   50  H              -0.7854   -1.1787   -2.5271      1.00      1.00        1.0078
   51  H               0.9989    0.4642   -3.6921      1.00      1.00        1.0078
   52  H               0.1318    1.3361   -2.4043      1.00      1.00        1.0078


 FRAGMENTS
 =========                                     Atoms in this Fragment     Cart. coord.s (Angstrom)
                                               -------------------------------------------------------
    1  fA                                                1  C           -2.9877    2.0522   -3.2821
                                                         3  C           -2.3015    0.7536   -1.3405
                                                         5  C           -1.4934    0.6963   -0.0609
                                                         6  C           -2.2106    0.2953    1.1801
                                                         7  C           -3.1991   -0.7054    1.1554
                                                         8  C           -3.8149   -1.1168    2.3380
                                                         9  C           -3.4655   -0.5398    3.5621
                                                        10  C           -2.4953    0.4672    3.5924
                                                        11  C           -1.8765    0.8841    2.4148
                                                         2  N           -2.3590    1.9359   -1.9791
                                                        12  N           -0.6279    1.7534    0.0933
                                                        13  N            0.5166    1.9637    0.0224
                                                         4  O           -2.8743   -0.2541   -1.7632
                                                        14  H           -2.9129    3.0939   -3.6159
                                                        15  H           -4.0501    1.7679   -3.2362
                                                        16  H           -2.4894    1.4029   -4.0195
                                                        17  H           -1.8994    2.7487   -1.5829
                                                        18  H           -3.4649   -1.1719    0.2097
                                                        19  H           -4.5748   -1.9009    2.2992
                                                        20  H           -3.9495   -0.8670    4.4850
                                                        21  H           -2.2203    0.9380    4.5390
                                                        22  H           -1.1317    1.6802    2.4585
    2  fB                                               23  C            1.4088    0.0934   -0.3577
                                                        24  C            2.2656    0.0964    0.8557
                                                        25  C            3.6687    0.1593    0.7299
                                                        26  C            4.4956    0.1995    1.8550
                                                        27  C            3.9447    0.1976    3.1389
                                                        28  C            2.5539    0.1663    3.2817
                                                        29  C            1.7274    0.1214    2.1588
                                                        30  C            2.0179    0.3714   -1.7366
                                                        31  C            2.6222   -0.9783   -2.2432
                                                        32  C            1.3608   -1.8159   -2.5913
                                                        33  C            0.1958   -0.8828   -2.1464
                                                        34  C            0.7639    0.4684   -2.6181
                                                        35  C            0.2579   -0.7165   -0.6152
                                                        36  C           -0.0790   -1.9404    0.1879
                                                        37  F            0.9381   -2.8499    0.1701
                                                        38  F           -1.1529   -2.5819   -0.3230
                                                        39  F           -0.3355   -1.7401    1.4923
                                                        40  H            4.1299    0.1731   -0.2568
                                                        41  H            5.5796    0.2375    1.7226
                                                        42  H            4.5911    0.2318    4.0189
                                                        43  H            2.1036    0.1864    4.2772
                                                        44  H            0.6501    0.1243    2.3019
                                                        45  H            2.7109    1.2213   -1.7599
                                                        46  H            3.2485   -1.4633   -1.4832
                                                        47  H            3.2489   -0.7983   -3.1290
                                                        48  H            1.2790   -1.9839   -3.6753
                                                        49  H            1.3417   -2.7961   -2.1016
                                                        50  H           -0.7854   -1.1787   -2.5271
                                                        51  H            0.9989    0.4642   -3.6921
                                                        52  H            0.1318    1.3361   -2.4043



 =====================================
 S Y M M E T R Y ,   E L E C T R O N S
 =====================================
  
 Symmetry: NOSYM

 Irreducible Representations, including subspecies
 -------------------------------------------------
 A


 Configuration of Valence Electrons
 ==================================
 ( determined in the SCF procedure )

 Total:   216

 Net Charge: 0 (Nuclei minus Electrons)

 Aufbau principle for MO occupations will be applied through SCF cycle no.     100
 Thereafter, the program will assign electrons to MOs that are spatially
 similar to the occupied MOs in a "reference" cycle ("KeepOrbitals").
 The reference cycle is always the PREVIOUS cycle: it will evolve with
 the SCF procedure.
 ***************************************************************************************************



                                      ****************************************
                                      *  B U I L D : (Fragments, Functions)  *
                                      ****************************************
  

 The individual fragments are copies of the corresponding 'Master' fragments defined on the fragment files.
 However, they may have been rotated (and translated) with respect to the Master. The local coordinate axes
 of each fragment (which define for instance the spatial orientation in the current molecule of a fragment
 P:x orbital) are not necessarily those of the molecule.
 The local frame (if different from the molecular one) is printed to enable an interpretation of the expan-
 sion of an MO in Fragment Orbitals.



                                              ************************
                                              *  Fragment Type : fA  *
                                              ************************
  

 Fragment no.    1   (in the list of all fragments)
 -----------------
 The local coordinate frame is identical to the molecular frame.

 Check Atomic Coordinates:

                  Master (on file)          After Computed Tranformation               As specified on Input
           ----------------------------     ----------------------------     ---------------------------------
     1)    -2.98766   2.05219  -3.28212     -2.98766   2.05219  -3.28212       1  -2.98766   2.05219  -3.28212
     2)    -2.30152   0.75361  -1.34050     -2.30152   0.75361  -1.34050       3  -2.30152   0.75361  -1.34050
     3)    -1.49343   0.69635  -0.06088     -1.49343   0.69635  -0.06088       5  -1.49343   0.69635  -0.06088
     4)    -2.21060   0.29530   1.18005     -2.21060   0.29530   1.18005       6  -2.21060   0.29530   1.18005
     5)    -3.19915  -0.70545   1.15536     -3.19915  -0.70545   1.15536       7  -3.19915  -0.70545   1.15536
     6)    -3.81490  -1.11680   2.33799     -3.81490  -1.11680   2.33799       8  -3.81490  -1.11680   2.33799
     7)    -3.46551  -0.53976   3.56208     -3.46551  -0.53976   3.56208       9  -3.46551  -0.53976   3.56208
     8)    -2.49531   0.46716   3.59237     -2.49531   0.46716   3.59237      10  -2.49531   0.46716   3.59237
     9)    -1.87646   0.88414   2.41484     -1.87646   0.88414   2.41484      11  -1.87646   0.88414   2.41484
    10)    -2.35902   1.93590  -1.97913     -2.35902   1.93590  -1.97913       2  -2.35902   1.93590  -1.97913
    11)    -0.62792   1.75342   0.09333     -0.62792   1.75342   0.09333      12  -0.62792   1.75342   0.09333
    12)     0.51662   1.96366   0.02236      0.51662   1.96366   0.02236      13   0.51662   1.96366   0.02236
    13)    -2.87431  -0.25409  -1.76319     -2.87431  -0.25409  -1.76319       4  -2.87431  -0.25409  -1.76319
    14)    -2.91285   3.09393  -3.61590     -2.91285   3.09393  -3.61590      14  -2.91285   3.09393  -3.61590
    15)    -4.05007   1.76786  -3.23621     -4.05007   1.76786  -3.23621      15  -4.05007   1.76786  -3.23621
    16)    -2.48941   1.40286  -4.01954     -2.48941   1.40286  -4.01954      16  -2.48941   1.40286  -4.01954
    17)    -1.89940   2.74866  -1.58289     -1.89940   2.74866  -1.58289      17  -1.89940   2.74866  -1.58289
    18)    -3.46494  -1.17193   0.20971     -3.46494  -1.17193   0.20971      18  -3.46494  -1.17193   0.20971
    19)    -4.57484  -1.90088   2.29922     -4.57484  -1.90088   2.29922      19  -4.57484  -1.90088   2.29922
    20)    -3.94950  -0.86699   4.48501     -3.94950  -0.86699   4.48501      20  -3.94950  -0.86699   4.48501
    21)    -2.22033   0.93802   4.53898     -2.22033   0.93802   4.53898      21  -2.22033   0.93802   4.53898
    22)    -1.13166   1.68020   2.45847     -1.13166   1.68020   2.45847      22  -1.13166   1.68020   2.45847



                                              ************************
                                              *  Fragment Type : fB  *
                                              ************************
  

 Fragment no.    2   (in the list of all fragments)
 -----------------
 The local coordinate frame is identical to the molecular frame.

 Check Atomic Coordinates:

                  Master (on file)          After Computed Tranformation               As specified on Input
           ----------------------------     ----------------------------     ---------------------------------
     1)     1.40885   0.09342  -0.35770      1.40885   0.09342  -0.35770      23   1.40885   0.09342  -0.35770
     2)     2.26556   0.09644   0.85574      2.26556   0.09644   0.85574      24   2.26556   0.09644   0.85574
     3)     3.66872   0.15935   0.72989      3.66872   0.15935   0.72989      25   3.66872   0.15935   0.72989
     4)     4.49558   0.19954   1.85503      4.49558   0.19954   1.85503      26   4.49558   0.19954   1.85503
     5)     3.94465   0.19764   3.13887      3.94465   0.19764   3.13887      27   3.94465   0.19764   3.13887
     6)     2.55394   0.16631   3.28169      2.55394   0.16631   3.28169      28   2.55394   0.16631   3.28169
     7)     1.72742   0.12140   2.15885      1.72742   0.12140   2.15885      29   1.72742   0.12140   2.15885
     8)     2.01788   0.37145  -1.73655      2.01788   0.37145  -1.73655      30   2.01788   0.37145  -1.73655
     9)     2.62216  -0.97829  -2.24317      2.62216  -0.97829  -2.24317      31   2.62216  -0.97829  -2.24317
    10)     1.36078  -1.81589  -2.59128      1.36078  -1.81589  -2.59128      32   1.36078  -1.81589  -2.59128
    11)     0.19584  -0.88278  -2.14639      0.19584  -0.88278  -2.14639      33   0.19584  -0.88278  -2.14639
    12)     0.76391   0.46844  -2.61807      0.76391   0.46844  -2.61807      34   0.76391   0.46844  -2.61807
    13)     0.25789  -0.71647  -0.61517      0.25789  -0.71647  -0.61517      35   0.25789  -0.71647  -0.61517
    14)    -0.07898  -1.94041   0.18791     -0.07898  -1.94041   0.18791      36  -0.07898  -1.94041   0.18791
    15)     0.93806  -2.84988   0.17009      0.93806  -2.84988   0.17009      37   0.93806  -2.84988   0.17009
    16)    -1.15292  -2.58188  -0.32303     -1.15292  -2.58188  -0.32303      38  -1.15292  -2.58188  -0.32303
    17)    -0.33554  -1.74009   1.49226     -0.33554  -1.74009   1.49226      39  -0.33554  -1.74009   1.49226
    18)     4.12993   0.17314  -0.25684      4.12993   0.17314  -0.25684      40   4.12993   0.17314  -0.25684
    19)     5.57960   0.23749   1.72261      5.57960   0.23749   1.72261      41   5.57960   0.23749   1.72261
    20)     4.59113   0.23182   4.01890      4.59113   0.23182   4.01890      42   4.59113   0.23182   4.01890
    21)     2.10363   0.18642   4.27719      2.10363   0.18642   4.27719      43   2.10363   0.18642   4.27719
    22)     0.65006   0.12433   2.30194      0.65006   0.12433   2.30194      44   0.65006   0.12433   2.30194
    23)     2.71085   1.22130  -1.75993      2.71085   1.22130  -1.75993      45   2.71085   1.22130  -1.75993
    24)     3.24849  -1.46334  -1.48316      3.24849  -1.46334  -1.48316      46   3.24849  -1.46334  -1.48316
    25)     3.24894  -0.79828  -3.12899      3.24894  -0.79828  -3.12899      47   3.24894  -0.79828  -3.12899
    26)     1.27897  -1.98387  -3.67535      1.27897  -1.98387  -3.67535      48   1.27897  -1.98387  -3.67535
    27)     1.34169  -2.79607  -2.10155      1.34169  -2.79607  -2.10155      49   1.34169  -2.79607  -2.10155
    28)    -0.78544  -1.17874  -2.52705     -0.78544  -1.17874  -2.52705      50  -0.78544  -1.17874  -2.52705
    29)     0.99893   0.46421  -3.69205      0.99893   0.46421  -3.69205      51   0.99893   0.46421  -3.69205
    30)     0.13178   1.33613  -2.40428      0.13178   1.33613  -2.40428      52   0.13178   1.33613  -2.40428



 =======
 S F O s  ***  (Symmetrized Fragment Orbitals)  ***
 =======
  
 SFOs are linear combinations of (valence) Fragment Orbitals (FOs), such that the SFOs transform as the
 irreducible representations of the (molecular) symmetry group. Each SFO is therefore characterized by
 an irrep of the molecule and by a few (or only one) generating FOs.
 The SFOs constitute a symmetry-adapted basis for the Fock matrix. The MO eigenvector coefficients in
 this basis provide a direct interpretation of the MOs in terms of Frontier Orbital Theory.

 The SFOs are combined with auxiliary Core Functions (CFs) to ensure orthogonalization on the (frozen)
 Core Orbitals (COs). The Core-orthogonalized SFOs (CSFOs) constitute the true Fock basis.

 The FOs, and hence also the (C)SFOs are combinations of the elementary basis functions (BAS). The basis
 functions that participate in the description of the SFOs depend on the irrep. The indices of the
 involved functions are printed below for each irrep.
 (The complete list of primitive basis functions is printed in another section)

 Total nr. of (C)SFOs (summation over all irreps) :  1022

 NOTE: a (C)SFO that is defined as a combination of more than one FO is usually NOT normalized.



                                       === A ===
 Nr. of SFOs : 1022
 Cartesian basis functions that participate in this irrep (total number =  1164) :
      1     2     3     4     5     6     9    12     7    10
     13     8    11    14    15    16    17    18    19    20
     21    22    23    24    25    26    27    28    29    30
     31    32    33    34    35    36    39    42    37    40
     43    38    41    44    45    46    47    48    49    50
     51    52    53    54    55    56    57    58    59    60
     61    62    63    64    65    66    69    72    67    70
     73    68    71    74    75    76    77    78    79    80
     81    82    83    84    85    86    87    88    89    90
     91    92    93    94    95    96    99   102    97   100
    103    98   101   104   105   106   107   108   109   110
    111   112   113   114   115   116   117   118   119   120
    121   122   123   124   125   126   129   132   127   130
    133   128   131   134   135   136   137   138   139   140
    141   142   143   144   145   146   147   148   149   150
    151   152   153   154   155   156   159   162   157   160
    163   158   161   164   165   166   167   168   169   170
    171   172   173   174   175   176   177   178   179   180
    181   182   183   184   185   186   189   192   187   190
    193   188   191   194   195   196   197   198   199   200
    201   202   203   204   205   206   207   208   209   210
    211   212   213   214   215   216   219   222   217   220
    223   218   221   224   225   226   227   228   229   230
    231   232   233   234   235   236   237   238   239   240
    241   242   243   244   245   246   249   252   247   250
    253   248   251   254   255   256   257   258   259   260
    261   262   263   264   265   266   267   268   269   270
    271   272   273   274   275   276   279   282   277   280
    283   278   281   284   285   286   287   288   289   290
    291   292   293   294   295   296   297   298   299   300
    301   302   303   304   305   306   309   312   307   310
    313   308   311   314   315   316   317   318   319   320
    321   322   323   324   325   326   327   328   329   330
    331   332   333   334   335   336   339   342   337   340
    343   338   341   344   345   346   347   348   349   350
    351   352   353   354   355   356   357   358   359   360
    361   362   363   364   365   366   369   372   367   370
    373   368   371   374   375   376   377   378   379   380
    381   382   383   384   385   386   387   388   389   390
    391   392   393   394   395   396   397   398   399   400
    401   402   403   404   405   406   407   408   409   410
    411   412   413   414   415   416   417   418   419   420
    421   422   423   424   425   426   427   428   429   430
    431   432   433   434   435   436   437   438   439   440
    441   442   443   444   445   446   447   448   449   450
    451   452   453   454   455   456   457   458   459   460
    461   462   463   464   465   466   467   468   469   470
    471   472   473   474   475   476   477   478   479   480
    481   482   483   484   485   486   487   488   489   490
    491   492   493   494   495   496   497   498   499   500
    501   502   503   504   507   510   505   508   511   506
    509   512   513   514   515   516   517   518   519   520
    521   522   523   524   525   526   527   528   529   530
    531   532   533   534   537   540   535   538   541   536
    539   542   543   544   545   546   547   548   549   550
    551   552   553   554   555   556   557   558   559   560
    561   562   563   564   567   570   565   568   571   566
    569   572   573   574   575   576   577   578   579   580
    581   582   583   584   585   586   587   588   589   590
    591   592   593   594   597   600   595   598   601   596
    599   602   603   604   605   606   607   608   609   610
    611   612   613   614   615   616   617   618   619   620
    621   622   623   624   627   630   625   628   631   626
    629   632   633   634   635   636   637   638   639   640
    641   642   643   644   645   646   647   648   649   650
    651   652   653   654   657   660   655   658   661   656
    659   662   663   664   665   666   667   668   669   670
    671   672   673   674   675   676   677   678   679   680
    681   682   683   684   687   690   685   688   691   686
    689   692   693   694   695   696   697   698   699   700
    701   702   703   704   705   706   707   708   709   710
    711   712   713   714   717   720   715   718   721   716
    719   722   723   724   725   726   727   728   729   730
    731   732   733   734   735   736   737   738   739   740
    741   742   743   744   747   750   745   748   751   746
    749   752   753   754   755   756   757   758   759   760
    761   762   763   764   765   766   767   768   769   770
    771   772   773   774   777   780   775   778   781   776
    779   782   783   784   785   786   787   788   789   790
    791   792   793   794   795   796   797   798   799   800
    801   802   803   804   807   810   805   808   811   806
    809   812   813   814   815   816   817   818   819   820
    821   822   823   824   825   826   827   828   829   830
    831   832   833   834   837   840   835   838   841   836
    839   842   843   844   845   846   847   848   849   850
    851   852   853   854   855   856   857   858   859   860
    861   862   863   864   867   870   865   868   871   866
    869   872   873   874   875   876   877   878   879   880
    881   882   883   884   885   886   887   888   889   890
    891   892   893   894   897   900   895   898   901   896
    899   902   903   904   905   906   907   908   909   910
    911   912   913   914   915   916   917   918   919   920
    921   922   923   924   927   930   925   928   931   926
    929   932   933   934   935   936   937   938   939   940
    941   942   943   944   945   946   947   948   949   950
    951   952   953   954   957   960   955   958   961   956
    959   962   963   964   965   966   967   968   969   970
    971   972   973   974   975   976   977   978   979   980
    981   982   983   984   987   990   985   988   991   986
    989   992   993   994   995   996   997   998   999  1000
   1001  1002  1003  1004  1005  1006  1007  1008  1009  1010
   1011  1012  1013  1014  1015  1016  1017  1018  1019  1020
   1021  1022  1023  1024  1025  1026  1027  1028  1029  1030
   1031  1032  1033  1034  1035  1036  1037  1038  1039  1040
   1041  1042  1043  1044  1045  1046  1047  1048  1049  1050
   1051  1052  1053  1054  1055  1056  1057  1058  1059  1060
   1061  1062  1063  1064  1065  1066  1067  1068  1069  1070
   1071  1072  1073  1074  1075  1076  1077  1078  1079  1080
   1081  1082  1083  1084  1085  1086  1087  1088  1089  1090
   1091  1092  1093  1094  1095  1096  1097  1098  1099  1100
   1101  1102  1103  1104  1105  1106  1107  1108  1109  1110
   1111  1112  1113  1114  1115  1116  1117  1118  1119  1120
   1121  1122  1123  1124  1125  1126  1127  1128  1129  1130
   1131  1132  1133  1134  1135  1136  1137  1138  1139  1140
   1141  1142  1143  1144  1145  1146  1147  1148  1149  1150
   1151  1152  1153  1154  1155  1156  1157  1158  1159  1160
   1161  1162  1163  1164

    SFO  (index         Fragment          Generating    Expansion in Fragment Orbitals
  indx  incl.CFs)   Occup   Orb.Energy   FragmentType  Coeff.   Orbital     on Fragment
 --------------------------------------------------------------------------------------
     1       1      2.000     -18.771 au  fA            1.00      1 A               1
                        (    -510.798 eV)
     2       2      2.000     -14.159 au  fA            1.00      2 A               1
                        (    -385.276 eV)
     3       3      2.000     -14.106 au  fA            1.00      3 A               1
                        (    -383.838 eV)
     4       4      2.000     -14.065 au  fA            1.00      4 A               1
                        (    -382.741 eV)
     5       5      2.000     -10.034 au  fA            1.00      5 A               1
                        (    -273.026 eV)
     6       6      2.000      -9.991 au  fA            1.00      6 A               1
                        (    -271.861 eV)
     7       7      2.000      -9.966 au  fA            1.00      7 A               1
                        (    -271.177 eV)
     8       8      2.000      -9.954 au  fA            1.00      8 A               1
                        (    -270.861 eV)
     9       9      2.000      -9.933 au  fA            1.00      9 A               1
                        (    -270.277 eV)
    10      10      2.000      -9.931 au  fA            1.00     10 A               1
                        (    -270.231 eV)
    11      11      2.000      -9.928 au  fA            1.00     11 A               1
                        (    -270.156 eV)
    12      12      2.000      -9.927 au  fA            1.00     12 A               1
                        (    -270.140 eV)
    13      13      2.000      -9.925 au  fA            1.00     13 A               1
                        (    -270.063 eV)
    14      14      2.000      -1.020 au  fA            1.00     14 A               1
                        (     -27.745 eV)
    15      15      2.000      -0.958 au  fA            1.00     15 A               1
                        (     -26.081 eV)
    16      16      2.000      -0.860 au  fA            1.00     16 A               1
                        (     -23.390 eV)
    17      17      2.000      -0.797 au  fA            1.00     17 A               1
                        (     -21.675 eV)
    18      18      2.000      -0.760 au  fA            1.00     18 A               1
                        (     -20.688 eV)
    19      19      2.000      -0.679 au  fA            1.00     19 A               1
                        (     -18.489 eV)
    20      20      2.000      -0.678 au  fA            1.00     20 A               1
                        (     -18.462 eV)
    21      21      2.000      -0.654 au  fA            1.00     21 A               1
                        (     -17.803 eV)
    22      22      2.000      -0.576 au  fA            1.00     22 A               1
                        (     -15.665 eV)
    23      23      2.000      -0.553 au  fA            1.00     23 A               1
                        (     -15.047 eV)
    24      24      2.000      -0.550 au  fA            1.00     24 A               1
                        (     -14.954 eV)
    25      25      2.000      -0.522 au  fA            1.00     25 A               1
                        (     -14.200 eV)
    26      26      2.000      -0.489 au  fA            1.00     26 A               1
                        (     -13.311 eV)
    27      27      2.000      -0.459 au  fA            1.00     27 A               1
                        (     -12.498 eV)
    28      28      2.000      -0.437 au  fA            1.00     28 A               1
                        (     -11.883 eV)
    29      29      2.000      -0.430 au  fA            1.00     29 A               1
                        (     -11.693 eV)
    30      30      2.000      -0.416 au  fA            1.00     30 A               1
                        (     -11.321 eV)
    31      31      2.000      -0.414 au  fA            1.00     31 A               1
                        (     -11.253 eV)
    32      32      2.000      -0.406 au  fA            1.00     32 A               1
                        (     -11.046 eV)
    33      33      2.000      -0.400 au  fA            1.00     33 A               1
                        (     -10.890 eV)
    34      34      2.000      -0.385 au  fA            1.00     34 A               1
                        (     -10.485 eV)
    35      35      2.000      -0.376 au  fA            1.00     35 A               1
                        (     -10.219 eV)
    36      36      2.000      -0.366 au  fA            1.00     36 A               1
                        (      -9.958 eV)
    37      37      2.000      -0.361 au  fA            1.00     37 A               1
                        (      -9.835 eV)
    38      38      2.000      -0.352 au  fA            1.00     38 A               1
                        (      -9.568 eV)
    39      39      2.000      -0.332 au  fA            1.00     39 A               1
                        (      -9.037 eV)
    40      40      2.000      -0.318 au  fA            1.00     40 A               1
                        (      -8.656 eV)
    41      41      2.000      -0.308 au  fA            1.00     41 A               1
                        (      -8.379 eV)
    42      42      2.000      -0.258 au  fA            1.00     42 A               1
                        (      -7.015 eV)
    43      43      2.000      -0.239 au  fA            1.00     43 A               1
                        (      -6.500 eV)
    44      44      2.000      -0.233 au  fA            1.00     44 A               1
                        (      -6.331 eV)
    45      45      2.000      -0.227 au  fA            1.00     45 A               1
                        (      -6.181 eV)
    46      46      2.000      -0.188 au  fA            1.00     46 A               1
                        (      -5.123 eV)
    47      47       --        -0.125 au  fA            1.00     47 A               1
                        (      -3.410 eV)
    48      48       --        -0.110 au  fA            1.00     48 A               1
                        (      -3.006 eV)
    49      49       --        -0.046 au  fA            1.00     49 A               1
                        (      -1.256 eV)
    50      50       --        -0.038 au  fA            1.00     50 A               1
                        (      -1.034 eV)
    51      51       --        -0.021 au  fA            1.00     51 A               1
                        (      -0.577 eV)
    52      52       --        -0.009 au  fA            1.00     52 A               1
                        (      -0.239 eV)
    53      53       --         0.001 au  fA            1.00     53 A               1
                        (       0.020 eV)
    54      54       --         0.011 au  fA            1.00     54 A               1
                        (       0.287 eV)
    55      55       --         0.022 au  fA            1.00     55 A               1
                        (       0.606 eV)
    56      56       --         0.034 au  fA            1.00     56 A               1
                        (       0.930 eV)
    57      57       --         0.048 au  fA            1.00     57 A               1
                        (       1.305 eV)
    58      58       --         0.055 au  fA            1.00     58 A               1
                        (       1.485 eV)
    59      59       --         0.066 au  fA            1.00     59 A               1
                        (       1.800 eV)
    60      60       --         0.085 au  fA            1.00     60 A               1
                        (       2.303 eV)
    61      61       --         0.095 au  fA            1.00     61 A               1
                        (       2.580 eV)
    62      62       --         0.100 au  fA            1.00     62 A               1
                        (       2.708 eV)
    63      63       --         0.120 au  fA            1.00     63 A               1
                        (       3.274 eV)
    64      64       --         0.124 au  fA            1.00     64 A               1
                        (       3.384 eV)
    65      65       --         0.137 au  fA            1.00     65 A               1
                        (       3.727 eV)
    66      66       --         0.148 au  fA            1.00     66 A               1
                        (       4.041 eV)
    67      67       --         0.154 au  fA            1.00     67 A               1
                        (       4.189 eV)
    68      68       --         0.158 au  fA            1.00     68 A               1
                        (       4.309 eV)
    69      69       --         0.168 au  fA            1.00     69 A               1
                        (       4.564 eV)
    70      70       --         0.180 au  fA            1.00     70 A               1
                        (       4.901 eV)
    71      71       --         0.183 au  fA            1.00     71 A               1
                        (       4.968 eV)
    72      72       --         0.189 au  fA            1.00     72 A               1
                        (       5.148 eV)
    73      73       --         0.192 au  fA            1.00     73 A               1
                        (       5.223 eV)
    74      74       --         0.197 au  fA            1.00     74 A               1
                        (       5.352 eV)
    75      75       --         0.207 au  fA            1.00     75 A               1
                        (       5.636 eV)
    76      76       --         0.219 au  fA            1.00     76 A               1
                        (       5.948 eV)
    77      77       --         0.232 au  fA            1.00     77 A               1
                        (       6.308 eV)
    78      78       --         0.250 au  fA            1.00     78 A               1
                        (       6.805 eV)
    79      79       --         0.257 au  fA            1.00     79 A               1
                        (       7.001 eV)
    80      80       --         0.263 au  fA            1.00     80 A               1
                        (       7.158 eV)
    81      81       --         0.273 au  fA            1.00     81 A               1
                        (       7.426 eV)
    82      82       --         0.283 au  fA            1.00     82 A               1
                        (       7.691 eV)
    83      83       --         0.285 au  fA            1.00     83 A               1
                        (       7.759 eV)
    84      84       --         0.297 au  fA            1.00     84 A               1
                        (       8.094 eV)
    85      85       --         0.301 au  fA            1.00     85 A               1
                        (       8.182 eV)
    86      86       --         0.304 au  fA            1.00     86 A               1
                        (       8.281 eV)
    87      87       --         0.311 au  fA            1.00     87 A               1
                        (       8.471 eV)
    88      88       --         0.321 au  fA            1.00     88 A               1
                        (       8.733 eV)
    89      89       --         0.331 au  fA            1.00     89 A               1
                        (       9.009 eV)
    90      90       --         0.339 au  fA            1.00     90 A               1
                        (       9.237 eV)
    91      91       --         0.343 au  fA            1.00     91 A               1
                        (       9.338 eV)
    92      92       --         0.349 au  fA            1.00     92 A               1
                        (       9.497 eV)
    93      93       --         0.366 au  fA            1.00     93 A               1
                        (       9.948 eV)
    94      94       --         0.368 au  fA            1.00     94 A               1
                        (      10.012 eV)
    95      95       --         0.374 au  fA            1.00     95 A               1
                        (      10.165 eV)
    96      96       --         0.383 au  fA            1.00     96 A               1
                        (      10.423 eV)
    97      97       --         0.398 au  fA            1.00     97 A               1
                        (      10.826 eV)
    98      98       --         0.406 au  fA            1.00     98 A               1
                        (      11.035 eV)
    99      99       --         0.411 au  fA            1.00     99 A               1
                        (      11.188 eV)
   100     100       --         0.434 au  fA            1.00    100 A               1
                        (      11.802 eV)
   101     101       --         0.446 au  fA            1.00    101 A               1
                        (      12.149 eV)
   102     102       --         0.450 au  fA            1.00    102 A               1
                        (      12.240 eV)
   103     103       --         0.467 au  fA            1.00    103 A               1
                        (      12.695 eV)
   104     104       --         0.474 au  fA            1.00    104 A               1
                        (      12.887 eV)
   105     105       --         0.494 au  fA            1.00    105 A               1
                        (      13.439 eV)
   106     106       --         0.495 au  fA            1.00    106 A               1
                        (      13.460 eV)
   107     107       --         0.517 au  fA            1.00    107 A               1
                        (      14.064 eV)
   108     108       --         0.529 au  fA            1.00    108 A               1
                        (      14.401 eV)
   109     109       --         0.554 au  fA            1.00    109 A               1
                        (      15.071 eV)
   110     110       --         0.560 au  fA            1.00    110 A               1
                        (      15.239 eV)
   111     111       --         0.566 au  fA            1.00    111 A               1
                        (      15.396 eV)
   112     112       --         0.584 au  fA            1.00    112 A               1
                        (      15.893 eV)
   113     113       --         0.599 au  fA            1.00    113 A               1
                        (      16.299 eV)
   114     114       --         0.617 au  fA            1.00    114 A               1
                        (      16.779 eV)
   115     115       --         0.641 au  fA            1.00    115 A               1
                        (      17.432 eV)
   116     116       --         0.652 au  fA            1.00    116 A               1
                        (      17.736 eV)
   117     117       --         0.655 au  fA            1.00    117 A               1
                        (      17.828 eV)
   118     118       --         0.686 au  fA            1.00    118 A               1
                        (      18.663 eV)
   119     119       --         0.700 au  fA            1.00    119 A               1
                        (      19.054 eV)
   120     120       --         0.715 au  fA            1.00    120 A               1
                        (      19.449 eV)
   121     121       --         0.728 au  fA            1.00    121 A               1
                        (      19.818 eV)
   122     122       --         0.753 au  fA            1.00    122 A               1
                        (      20.492 eV)
   123     123       --         0.768 au  fA            1.00    123 A               1
                        (      20.899 eV)
   124     124       --         0.781 au  fA            1.00    124 A               1
                        (      21.250 eV)
   125     125       --         0.794 au  fA            1.00    125 A               1
                        (      21.594 eV)
   126     126       --         0.801 au  fA            1.00    126 A               1
                        (      21.807 eV)
   127     127       --         0.819 au  fA            1.00    127 A               1
                        (      22.280 eV)
   128     128       --         0.845 au  fA            1.00    128 A               1
                        (      22.981 eV)
   129     129       --         0.866 au  fA            1.00    129 A               1
                        (      23.554 eV)
   130     130       --         0.888 au  fA            1.00    130 A               1
                        (      24.169 eV)
   131     131       --         0.895 au  fA            1.00    131 A               1
                        (      24.367 eV)
   132     132       --         0.903 au  fA            1.00    132 A               1
                        (      24.565 eV)
   133     133       --         0.914 au  fA            1.00    133 A               1
                        (      24.875 eV)
   134     134       --         0.929 au  fA            1.00    134 A               1
                        (      25.286 eV)
   135     135       --         0.951 au  fA            1.00    135 A               1
                        (      25.870 eV)
   136     136       --         0.960 au  fA            1.00    136 A               1
                        (      26.112 eV)
   137     137       --         0.970 au  fA            1.00    137 A               1
                        (      26.390 eV)
   138     138       --         0.983 au  fA            1.00    138 A               1
                        (      26.748 eV)
   139     139       --         1.004 au  fA            1.00    139 A               1
                        (      27.326 eV)
   140     140       --         1.016 au  fA            1.00    140 A               1
                        (      27.645 eV)
   141     141       --         1.031 au  fA            1.00    141 A               1
                        (      28.056 eV)
   142     142       --         1.047 au  fA            1.00    142 A               1
                        (      28.504 eV)
   143     143       --         1.055 au  fA            1.00    143 A               1
                        (      28.712 eV)
   144     144       --         1.069 au  fA            1.00    144 A               1
                        (      29.080 eV)
   145     145       --         1.080 au  fA            1.00    145 A               1
                        (      29.394 eV)
   146     146       --         1.092 au  fA            1.00    146 A               1
                        (      29.728 eV)
   147     147       --         1.104 au  fA            1.00    147 A               1
                        (      30.042 eV)
   148     148       --         1.112 au  fA            1.00    148 A               1
                        (      30.266 eV)
   149     149       --         1.140 au  fA            1.00    149 A               1
                        (      31.031 eV)
   150     150       --         1.158 au  fA            1.00    150 A               1
                        (      31.516 eV)
   151     151       --         1.173 au  fA            1.00    151 A               1
                        (      31.913 eV)
   152     152       --         1.196 au  fA            1.00    152 A               1
                        (      32.539 eV)
   153     153       --         1.213 au  fA            1.00    153 A               1
                        (      33.017 eV)
   154     154       --         1.215 au  fA            1.00    154 A               1
                        (      33.063 eV)
   155     155       --         1.246 au  fA            1.00    155 A               1
                        (      33.898 eV)
   156     156       --         1.257 au  fA            1.00    156 A               1
                        (      34.218 eV)
   157     157       --         1.275 au  fA            1.00    157 A               1
                        (      34.702 eV)
   158     158       --         1.291 au  fA            1.00    158 A               1
                        (      35.120 eV)
   159     159       --         1.311 au  fA            1.00    159 A               1
                        (      35.669 eV)
   160     160       --         1.316 au  fA            1.00    160 A               1
                        (      35.809 eV)
   161     161       --         1.320 au  fA            1.00    161 A               1
                        (      35.929 eV)
   162     162       --         1.331 au  fA            1.00    162 A               1
                        (      36.205 eV)
   163     163       --         1.343 au  fA            1.00    163 A               1
                        (      36.543 eV)
   164     164       --         1.361 au  fA            1.00    164 A               1
                        (      37.030 eV)
   165     165       --         1.373 au  fA            1.00    165 A               1
                        (      37.354 eV)
   166     166       --         1.384 au  fA            1.00    166 A               1
                        (      37.669 eV)
   167     167       --         1.402 au  fA            1.00    167 A               1
                        (      38.154 eV)
   168     168       --         1.421 au  fA            1.00    168 A               1
                        (      38.667 eV)
   169     169       --         1.424 au  fA            1.00    169 A               1
                        (      38.757 eV)
   170     170       --         1.439 au  fA            1.00    170 A               1
                        (      39.148 eV)
   171     171       --         1.440 au  fA            1.00    171 A               1
                        (      39.190 eV)
   172     172       --         1.483 au  fA            1.00    172 A               1
                        (      40.348 eV)
   173     173       --         1.488 au  fA            1.00    173 A               1
                        (      40.483 eV)
   174     174       --         1.496 au  fA            1.00    174 A               1
                        (      40.706 eV)
   175     175       --         1.505 au  fA            1.00    175 A               1
                        (      40.964 eV)
   176     176       --         1.525 au  fA            1.00    176 A               1
                        (      41.503 eV)
   177     177       --         1.526 au  fA            1.00    177 A               1
                        (      41.536 eV)
   178     178       --         1.562 au  fA            1.00    178 A               1
                        (      42.504 eV)
   179     179       --         1.580 au  fA            1.00    179 A               1
                        (      42.987 eV)
   180     180       --         1.587 au  fA            1.00    180 A               1
                        (      43.185 eV)
   181     181       --         1.622 au  fA            1.00    181 A               1
                        (      44.146 eV)
   182     182       --         1.665 au  fA            1.00    182 A               1
                        (      45.317 eV)
   183     183       --         1.679 au  fA            1.00    183 A               1
                        (      45.684 eV)
   184     184       --         1.710 au  fA            1.00    184 A               1
                        (      46.523 eV)
   185     185       --         1.728 au  fA            1.00    185 A               1
                        (      47.018 eV)
   186     186       --         1.740 au  fA            1.00    186 A               1
                        (      47.346 eV)
   187     187       --         1.754 au  fA            1.00    187 A               1
                        (      47.735 eV)
   188     188       --         1.786 au  fA            1.00    188 A               1
                        (      48.606 eV)
   189     189       --         1.827 au  fA            1.00    189 A               1
                        (      49.710 eV)
   190     190       --         1.833 au  fA            1.00    190 A               1
                        (      49.868 eV)
   191     191       --         1.836 au  fA            1.00    191 A               1
                        (      49.973 eV)
   192     192       --         1.851 au  fA            1.00    192 A               1
                        (      50.361 eV)
   193     193       --         1.861 au  fA            1.00    193 A               1
                        (      50.652 eV)
   194     194       --         1.881 au  fA            1.00    194 A               1
                        (      51.174 eV)
   195     195       --         1.899 au  fA            1.00    195 A               1
                        (      51.683 eV)
   196     196       --         1.915 au  fA            1.00    196 A               1
                        (      52.111 eV)
   197     197       --         1.920 au  fA            1.00    197 A               1
                        (      52.235 eV)
   198     198       --         1.953 au  fA            1.00    198 A               1
                        (      53.150 eV)
   199     199       --         1.975 au  fA            1.00    199 A               1
                        (      53.738 eV)
   200     200       --         2.006 au  fA            1.00    200 A               1
                        (      54.585 eV)
   201     201       --         2.011 au  fA            1.00    201 A               1
                        (      54.732 eV)
   202     202       --         2.015 au  fA            1.00    202 A               1
                        (      54.827 eV)
   203     203       --         2.022 au  fA            1.00    203 A               1
                        (      55.023 eV)
   204     204       --         2.052 au  fA            1.00    204 A               1
                        (      55.846 eV)
   205     205       --         2.072 au  fA            1.00    205 A               1
                        (      56.389 eV)
   206     206       --         2.091 au  fA            1.00    206 A               1
                        (      56.909 eV)
   207     207       --         2.123 au  fA            1.00    207 A               1
                        (      57.769 eV)
   208     208       --         2.152 au  fA            1.00    208 A               1
                        (      58.552 eV)
   209     209       --         2.215 au  fA            1.00    209 A               1
                        (      60.278 eV)
   210     210       --         2.223 au  fA            1.00    210 A               1
                        (      60.493 eV)
   211     211       --         2.247 au  fA            1.00    211 A               1
                        (      61.157 eV)
   212     212       --         2.259 au  fA            1.00    212 A               1
                        (      61.459 eV)
   213     213       --         2.272 au  fA            1.00    213 A               1
                        (      61.816 eV)
   214     214       --         2.293 au  fA            1.00    214 A               1
                        (      62.401 eV)
   215     215       --         2.301 au  fA            1.00    215 A               1
                        (      62.625 eV)
   216     216       --         2.337 au  fA            1.00    216 A               1
                        (      63.591 eV)
   217     217       --         2.363 au  fA            1.00    217 A               1
                        (      64.307 eV)
   218     218       --         2.366 au  fA            1.00    218 A               1
                        (      64.391 eV)
   219     219       --         2.375 au  fA            1.00    219 A               1
                        (      64.614 eV)
   220     220       --         2.390 au  fA            1.00    220 A               1
                        (      65.031 eV)
   221     221       --         2.411 au  fA            1.00    221 A               1
                        (      65.609 eV)
   222     222       --         2.451 au  fA            1.00    222 A               1
                        (      66.691 eV)
   223     223       --         2.462 au  fA            1.00    223 A               1
                        (      66.990 eV)
   224     224       --         2.475 au  fA            1.00    224 A               1
                        (      67.335 eV)
   225     225       --         2.501 au  fA            1.00    225 A               1
                        (      68.063 eV)
   226     226       --         2.545 au  fA            1.00    226 A               1
                        (      69.254 eV)
   227     227       --         2.582 au  fA            1.00    227 A               1
                        (      70.255 eV)
   228     228       --         2.618 au  fA            1.00    228 A               1
                        (      71.228 eV)
   229     229       --         2.651 au  fA            1.00    229 A               1
                        (      72.148 eV)
   230     230       --         2.664 au  fA            1.00    230 A               1
                        (      72.488 eV)
   231     231       --         2.689 au  fA            1.00    231 A               1
                        (      73.183 eV)
   232     232       --         2.701 au  fA            1.00    232 A               1
                        (      73.505 eV)
   233     233       --         2.714 au  fA            1.00    233 A               1
                        (      73.860 eV)
   234     234       --         2.734 au  fA            1.00    234 A               1
                        (      74.405 eV)
   235     235       --         2.743 au  fA            1.00    235 A               1
                        (      74.640 eV)
   236     236       --         2.770 au  fA            1.00    236 A               1
                        (      75.382 eV)
   237     237       --         2.771 au  fA            1.00    237 A               1
                        (      75.414 eV)
   238     238       --         2.795 au  fA            1.00    238 A               1
                        (      76.047 eV)
   239     239       --         2.823 au  fA            1.00    239 A               1
                        (      76.808 eV)
   240     240       --         2.831 au  fA            1.00    240 A               1
                        (      77.030 eV)
   241     241       --         2.841 au  fA            1.00    241 A               1
                        (      77.311 eV)
   242     242       --         2.853 au  fA            1.00    242 A               1
                        (      77.643 eV)
   243     243       --         2.880 au  fA            1.00    243 A               1
                        (      78.368 eV)
   244     244       --         2.909 au  fA            1.00    244 A               1
                        (      79.159 eV)
   245     245       --         2.924 au  fA            1.00    245 A               1
                        (      79.557 eV)
   246     246       --         2.941 au  fA            1.00    246 A               1
                        (      80.036 eV)
   247     247       --         2.948 au  fA            1.00    247 A               1
                        (      80.220 eV)
   248     248       --         2.958 au  fA            1.00    248 A               1
                        (      80.489 eV)
   249     249       --         3.004 au  fA            1.00    249 A               1
                        (      81.755 eV)
   250     250       --         3.021 au  fA            1.00    250 A               1
                        (      82.202 eV)
   251     251       --         3.031 au  fA            1.00    251 A               1
                        (      82.468 eV)
   252     252       --         3.046 au  fA            1.00    252 A               1
                        (      82.884 eV)
   253     253       --         3.067 au  fA            1.00    253 A               1
                        (      83.462 eV)
   254     254       --         3.096 au  fA            1.00    254 A               1
                        (      84.239 eV)
   255     255       --         3.138 au  fA            1.00    255 A               1
                        (      85.376 eV)
   256     256       --         3.150 au  fA            1.00    256 A               1
                        (      85.706 eV)
   257     257       --         3.166 au  fA            1.00    257 A               1
                        (      86.157 eV)
   258     258       --         3.177 au  fA            1.00    258 A               1
                        (      86.452 eV)
   259     259       --         3.193 au  fA            1.00    259 A               1
                        (      86.893 eV)
   260     260       --         3.221 au  fA            1.00    260 A               1
                        (      87.648 eV)
   261     261       --         3.252 au  fA            1.00    261 A               1
                        (      88.501 eV)
   262     262       --         3.281 au  fA            1.00    262 A               1
                        (      89.270 eV)
   263     263       --         3.313 au  fA            1.00    263 A               1
                        (      90.141 eV)
   264     264       --         3.334 au  fA            1.00    264 A               1
                        (      90.736 eV)
   265     265       --         3.349 au  fA            1.00    265 A               1
                        (      91.137 eV)
   266     266       --         3.366 au  fA            1.00    266 A               1
                        (      91.587 eV)
   267     267       --         3.381 au  fA            1.00    267 A               1
                        (      92.009 eV)
   268     268       --         3.390 au  fA            1.00    268 A               1
                        (      92.260 eV)
   269     269       --         3.403 au  fA            1.00    269 A               1
                        (      92.587 eV)
   270     270       --         3.443 au  fA            1.00    270 A               1
                        (      93.681 eV)
   271     271       --         3.449 au  fA            1.00    271 A               1
                        (      93.849 eV)
   272     272       --         3.453 au  fA            1.00    272 A               1
                        (      93.961 eV)
   273     273       --         3.472 au  fA            1.00    273 A               1
                        (      94.481 eV)
   274     274       --         3.480 au  fA            1.00    274 A               1
                        (      94.700 eV)
   275     275       --         3.506 au  fA            1.00    275 A               1
                        (      95.404 eV)
   276     276       --         3.517 au  fA            1.00    276 A               1
                        (      95.707 eV)
   277     277       --         3.534 au  fA            1.00    277 A               1
                        (      96.166 eV)
   278     278       --         3.550 au  fA            1.00    278 A               1
                        (      96.605 eV)
   279     279       --         3.581 au  fA            1.00    279 A               1
                        (      97.441 eV)
   280     280       --         3.600 au  fA            1.00    280 A               1
                        (      97.958 eV)
   281     281       --         3.615 au  fA            1.00    281 A               1
                        (      98.375 eV)
   282     282       --         3.626 au  fA            1.00    282 A               1
                        (      98.673 eV)
   283     283       --         3.635 au  fA            1.00    283 A               1
                        (      98.901 eV)
   284     284       --         3.649 au  fA            1.00    284 A               1
                        (      99.287 eV)
   285     285       --         3.668 au  fA            1.00    285 A               1
                        (      99.814 eV)
   286     286       --         3.682 au  fA            1.00    286 A               1
                        (     100.195 eV)
   287     287       --         3.683 au  fA            1.00    287 A               1
                        (     100.231 eV)
   288     288       --         3.713 au  fA            1.00    288 A               1
                        (     101.026 eV)
   289     289       --         3.725 au  fA            1.00    289 A               1
                        (     101.350 eV)
   290     290       --         3.750 au  fA            1.00    290 A               1
                        (     102.033 eV)
   291     291       --         3.766 au  fA            1.00    291 A               1
                        (     102.475 eV)
   292     292       --         3.789 au  fA            1.00    292 A               1
                        (     103.112 eV)
   293     293       --         3.817 au  fA            1.00    293 A               1
                        (     103.877 eV)
   294     294       --         3.843 au  fA            1.00    294 A               1
                        (     104.571 eV)
   295     295       --         3.861 au  fA            1.00    295 A               1
                        (     105.056 eV)
   296     296       --         3.876 au  fA            1.00    296 A               1
                        (     105.459 eV)
   297     297       --         3.890 au  fA            1.00    297 A               1
                        (     105.849 eV)
   298     298       --         3.919 au  fA            1.00    298 A               1
                        (     106.653 eV)
   299     299       --         3.961 au  fA            1.00    299 A               1
                        (     107.771 eV)
   300     300       --         4.001 au  fA            1.00    300 A               1
                        (     108.874 eV)
   301     301       --         4.022 au  fA            1.00    301 A               1
                        (     109.440 eV)
   302     302       --         4.034 au  fA            1.00    302 A               1
                        (     109.764 eV)
   303     303       --         4.042 au  fA            1.00    303 A               1
                        (     109.994 eV)
   304     304       --         4.078 au  fA            1.00    304 A               1
                        (     110.972 eV)
   305     305       --         4.132 au  fA            1.00    305 A               1
                        (     112.446 eV)
   306     306       --         4.146 au  fA            1.00    306 A               1
                        (     112.829 eV)
   307     307       --         4.189 au  fA            1.00    307 A               1
                        (     113.999 eV)
   308     308       --         4.200 au  fA            1.00    308 A               1
                        (     114.275 eV)
   309     309       --         4.215 au  fA            1.00    309 A               1
                        (     114.704 eV)
   310     310       --         4.235 au  fA            1.00    310 A               1
                        (     115.247 eV)
   311     311       --         4.253 au  fA            1.00    311 A               1
                        (     115.724 eV)
   312     312       --         4.263 au  fA            1.00    312 A               1
                        (     116.000 eV)
   313     313       --         4.285 au  fA            1.00    313 A               1
                        (     116.588 eV)
   314     314       --         4.307 au  fA            1.00    314 A               1
                        (     117.200 eV)
   315     315       --         4.329 au  fA            1.00    315 A               1
                        (     117.809 eV)
   316     316       --         4.344 au  fA            1.00    316 A               1
                        (     118.208 eV)
   317     317       --         4.348 au  fA            1.00    317 A               1
                        (     118.314 eV)
   318     318       --         4.371 au  fA            1.00    318 A               1
                        (     118.937 eV)
   319     319       --         4.392 au  fA            1.00    319 A               1
                        (     119.517 eV)
   320     320       --         4.413 au  fA            1.00    320 A               1
                        (     120.079 eV)
   321     321       --         4.437 au  fA            1.00    321 A               1
                        (     120.747 eV)
   322     322       --         4.448 au  fA            1.00    322 A               1
                        (     121.035 eV)
   323     323       --         4.480 au  fA            1.00    323 A               1
                        (     121.917 eV)
   324     324       --         4.526 au  fA            1.00    324 A               1
                        (     123.147 eV)
   325     325       --         4.537 au  fA            1.00    325 A               1
                        (     123.447 eV)
   326     326       --         4.566 au  fA            1.00    326 A               1
                        (     124.258 eV)
   327     327       --         4.584 au  fA            1.00    327 A               1
                        (     124.732 eV)
   328     328       --         4.598 au  fA            1.00    328 A               1
                        (     125.124 eV)
   329     329       --         4.603 au  fA            1.00    329 A               1
                        (     125.265 eV)
   330     330       --         4.644 au  fA            1.00    330 A               1
                        (     126.376 eV)
   331     331       --         4.676 au  fA            1.00    331 A               1
                        (     127.254 eV)
   332     332       --         4.700 au  fA            1.00    332 A               1
                        (     127.882 eV)
   333     333       --         4.702 au  fA            1.00    333 A               1
                        (     127.940 eV)
   334     334       --         4.745 au  fA            1.00    334 A               1
                        (     129.109 eV)
   335     335       --         4.768 au  fA            1.00    335 A               1
                        (     129.745 eV)
   336     336       --         4.812 au  fA            1.00    336 A               1
                        (     130.928 eV)
   337     337       --         4.837 au  fA            1.00    337 A               1
                        (     131.618 eV)
   338     338       --         4.851 au  fA            1.00    338 A               1
                        (     132.015 eV)
   339     339       --         4.869 au  fA            1.00    339 A               1
                        (     132.500 eV)
   340     340       --         4.915 au  fA            1.00    340 A               1
                        (     133.748 eV)
   341     341       --         4.924 au  fA            1.00    341 A               1
                        (     133.978 eV)
[...]
     450       52.7762         0.000       
     449       52.5853         0.000       
     448       52.2048         0.000       
     447       52.1619         0.000       
     446       51.9598         0.000       
     445       51.8845         0.000       
     444       51.7012         0.000       
     443       51.4194         0.000       
     442       51.3463         0.000       
     441       51.1640         0.000       
     440       50.9508         0.000       
     439       50.8160         0.000       
     438       50.6724         0.000       
     437       50.4262         0.000       
     436       50.3020         0.000       
     435       50.1009         0.000       
     434       50.0914         0.000       
     433       49.9615         0.000       
     432       49.7198         0.000       
     431       49.3874         0.000       
     430       49.2698         0.000       
     429       49.0630         0.000       
     428       48.8026         0.000       
     427       48.6429         0.000       
     426       48.3564         0.000       
     425       47.8756         0.000       
     424       47.7375         0.000       
     423       47.6089         0.000       
     422       47.3981         0.000       
     421       47.2863         0.000       
     420       46.7975         0.000       
     419       46.4937         0.000       
     418       46.3552         0.000       
     417       46.2134         0.000       
     416       45.9671         0.000       
     415       45.8482         0.000       
     414       45.7424         0.000       
     413       45.4709         0.000       
     412       45.1615         0.000       
     411       45.0926         0.000       
     410       44.9475         0.000       
     409       44.6213         0.000       
     408       44.3973         0.000       
     407       44.1019         0.000       
     406       43.8963         0.000       
     405       43.6326         0.000       
     404       43.4714         0.000       
     403       43.2432         0.000       
     402       43.0232         0.000       
     401       42.5595         0.000       
     400       42.4999         0.000       
     399       42.3795         0.000       
     398       42.1497         0.000       
     397       42.0591         0.000       
     396       41.7185         0.000       
     395       41.5882         0.000       
     394       41.2810         0.000       
     393       41.1521         0.000       
     392       40.8508         0.000       
     391       40.7057         0.000       
     390       40.4926         0.000       
     389       40.3647         0.000       
     388       40.3038         0.000       
     387       40.0824         0.000       
     386       40.0050         0.000       
     385       39.8873         0.000       
     384       39.6455         0.000       
     383       39.5128         0.000       
     382       39.3876         0.000       
     381       39.2628         0.000       
     380       39.1621         0.000       
     379       38.9675         0.000       
     378       38.8041         0.000       
     377       38.5672         0.000       
     376       38.3038         0.000       
     375       38.2860         0.000       
     374       38.2074         0.000       
     373       37.9821         0.000       
     372       37.8790         0.000       
     371       37.5206         0.000       
     370       37.3726         0.000       
     369       37.2875         0.000       
     368       37.0149         0.000       
     367       36.8949         0.000       
     366       36.8526         0.000       
     365       36.5903         0.000       
     364       36.3950         0.000       
     363       36.1921         0.000       
     362       36.0862         0.000       
     361       35.9910         0.000       
     360       35.9293         0.000       
     359       35.8060         0.000       
     358       35.3778         0.000       
     357       35.2819         0.000       
     356       35.1667         0.000       
     355       35.1189         0.000       
     354       34.9683         0.000       
     353       34.6848         0.000       
     352       34.5361         0.000       
     351       34.3843         0.000       
     350       34.0452         0.000       
     349       33.7558         0.000       
     348       33.6282         0.000       
     347       33.6173         0.000       
     346       33.3222         0.000       
     345       32.9760         0.000       
     344       32.8928         0.000       
     343       32.6835         0.000       
     342       32.5139         0.000       
     341       32.2039         0.000       
     340       32.0413         0.000       
     339       31.9107         0.000       
     338       31.8007         0.000       
     337       31.6918         0.000       
     336       31.4510         0.000       
     335       31.2416         0.000       
     334       31.1287         0.000       
     333       30.8786         0.000       
     332       30.6508         0.000       
     331       30.4899         0.000       
     330       30.3622         0.000       
     329       30.2532         0.000       
     328       29.9275         0.000       
     327       29.7259         0.000       
     326       29.6840         0.000       
     325       29.3395         0.000       
     324       29.2923         0.000       
     323       29.0682         0.000       
     322       28.9863         0.000       
     321       28.8228         0.000       
     320       28.7555         0.000       
     319       28.7398         0.000       
     318       28.3632         0.000       
     317       28.1960         0.000       
     316       28.1217         0.000       
     315       28.0280         0.000       
     314       27.8746         0.000       
     313       27.7337         0.000       
     312       27.3343         0.000       
     311       27.1402         0.000       
     310       26.9926         0.000       
     309       26.7470         0.000       
     308       26.6504         0.000       
     307       26.4184         0.000       
     306       26.2758         0.000       
     305       26.1664         0.000       
     304       25.9373         0.000       
     303       25.8571         0.000       
     302       25.4131         0.000       
     301       25.3157         0.000       
     300       25.1448         0.000       
     299       24.9902         0.000       
     298       24.7963         0.000       
     297       24.6038         0.000       
     296       24.3143         0.000       
     295       24.2025         0.000       
     294       24.1133         0.000       
     293       24.0815         0.000       
     292       24.0036         0.000       
     291       23.9102         0.000       
     290       23.4721         0.000       
     289       23.2832         0.000       
     288       23.1852         0.000       
     287       23.0386         0.000       
     286       22.9984         0.000       
     285       22.8836         0.000       
     284       22.6083         0.000       
     283       22.4426         0.000       
     282       22.3672         0.000       
     281       22.2317         0.000       
     280       22.0685         0.000       
     279       21.7865         0.000       
     278       21.5731         0.000       
     277       21.1265         0.000       
     276       21.0560         0.000       
     275       20.8644         0.000       
     274       20.7336         0.000       
     273       20.5969         0.000       
     272       20.4504         0.000       
     271       20.4175         0.000       
     270       20.0704         0.000       
     269       19.8359         0.000       
     268       19.6270         0.000       
     267       19.2551         0.000       
     266       19.2067         0.000       
     265       19.1428         0.000       
     264       18.9271         0.000       
     263       18.7356         0.000       
     262       18.5523         0.000       
     261       18.3980         0.000       
     260       18.2400         0.000       
     259       18.0411         0.000       
     258       17.8419         0.000       
     257       17.7138         0.000       
     256       17.4673         0.000       
     255       17.3506         0.000       
     254       17.3284         0.000       
     253       16.9651         0.000       
     252       16.8448         0.000       
     251       16.5232         0.000       
     250       16.2960         0.000       
     249       16.1471         0.000       
     248       16.1159         0.000       
     247       15.7373         0.000       
     246       15.5006         0.000       
     245       15.4383         0.000       
     244       15.0519         0.000       
     243       14.9583         0.000       
     242       14.9011         0.000       
     241       14.6964         0.000       
     240       14.5638         0.000       
     239       14.4333         0.000       
     238       14.2347         0.000       
     237       14.1446         0.000       
     236       13.9822         0.000       
     235       13.7235         0.000       
     234       13.6544         0.000       
     233       13.6204         0.000       
     232       13.4632         0.000       
     231       13.3499         0.000       
     230       13.1456         0.000       
     229       12.8651         0.000       
     228       12.7002         0.000       
     227       12.6402         0.000       
     226       12.2772         0.000       
     225       12.2426         0.000       
     224       12.0087         0.000       
     223       11.8656         0.000       
     222       11.7893         0.000       
     221       11.7114         0.000       
     220       11.5933         0.000       
     219       11.5581         0.000       
     218       11.4809         0.000       
     217       11.2840         0.000       
     216       11.2160         0.000       
     215       11.1097         0.000       
     214       11.0759         0.000       
     213       10.9221         0.000       
     212       10.7254         0.000       
     211       10.5197         0.000       
     210       10.4709         0.000       
     209       10.3975         0.000       
     208       10.3044         0.000       
     207       10.1401         0.000       
     206       10.0165         0.000       
     205        9.9723         0.000       
     204        9.8200         0.000       
     203        9.6916         0.000       
     202        9.6342         0.000       
     201        9.4239         0.000       
     200        9.3106         0.000       
     199        9.2247         0.000       
     198        9.2032         0.000       
     197        9.0888         0.000       
     196        9.0000         0.000       
     195        8.8969         0.000       
     194        8.7517         0.000       
     193        8.5644         0.000       
     192        8.4587         0.000       
     191        8.4057         0.000       
     190        8.2977         0.000       
     189        8.1574         0.000       
     188        8.0825         0.000       
     187        8.0018         0.000       
     186        7.9605         0.000       
     185        7.8355         0.000       
     184        7.5829         0.000       
     183        7.5036         0.000       
     182        7.4082         0.000       
     181        7.3084         0.000       
     180        7.1908         0.000       
     179        6.9881         0.000       
     178        6.9053         0.000       
     177        6.8643         0.000       
     176        6.7212         0.000       
     175        6.6474         0.000       
     174        6.4748         0.000       
     173        6.2692         0.000       
     172        6.1823         0.000       
     171        6.1441         0.000       
     170        6.0281         0.000       
     169        5.9804         0.000       
     168        5.8849         0.000       
     167        5.6653         0.000       
     166        5.6141         0.000       
     165        5.4084         0.000       
     164        5.2869         0.000       
     163        5.2194         0.000       
     162        5.1408         0.000       
     161        5.0893         0.000       
     160        4.8960         0.000       
     159        4.8816         0.000       
     158        4.7382         0.000       
     157        4.6925         0.000       
     156        4.6794         0.000       
     155        4.5017         0.000       
     154        4.4283         0.000       
     153        4.3247         0.000       
     152        4.1899         0.000       
     151        4.0735         0.000       
     150        3.9146         0.000       
     149        3.7739         0.000       
     148        3.7555         0.000       
     147        3.6285         0.000       
     146        3.5015         0.000       
     145        3.3857         0.000       
     144        3.2463         0.000       
     143        3.1736         0.000       
     142        3.0318         0.000       
     141        2.8745         0.000       
     140        2.8153         0.000       
     139        2.6443         0.000       
     138        2.5717         0.000       
     137        2.5304         0.000       
     136        2.4265         0.000       
     135        2.2754         0.000       
     134        2.0861         0.000       
     133        1.8861         0.000       
     132        1.7997         0.000       
     131        1.6644         0.000       
     130        1.5386         0.000       
     129        1.4382         0.000       
     128        1.2813         0.000       
     127        1.0680         0.000       
     126        1.0573         0.000       
     125        0.9577         0.000       
     124        0.8002         0.000       
     123        0.6511         0.000       
     122        0.4488         0.000       
     121        0.2414         0.000       
     120        0.0788         0.000       
     119        0.0387         0.000       
     118       -0.1387         0.000       
     117       -0.1870         0.000       
     116       -0.3625         0.000       
     115       -0.7397         0.000       
     114       -1.0557         0.000       
     113       -1.1070         0.000       
     112       -1.2968         0.000       
     111       -1.7329         0.000       
     110       -2.6145         0.000       
     109       -2.8438         0.000 < LUMO
     108       -5.3052         2.000 < HOMO
     107       -5.8161         2.000       
     106       -6.2068         2.000       
     105       -6.3601         2.000       
     104       -6.3750         2.000       
     103       -6.6234         2.000       
     102       -6.7470         2.000       
     101       -7.1990         2.000       
     100       -7.5388         2.000       
      99       -8.0674         2.000       
      98       -8.1176         2.000       
      97       -8.2781         2.000       
      96       -8.4119         2.000       
      95       -8.4700         2.000       
      94       -8.5157         2.000       
      93       -8.6029         2.000       
      92       -8.7053         2.000       
      91       -8.7687         2.000       
      90       -8.9587         2.000       
      89       -8.9812         2.000       
      88       -9.0997         2.000       
      87       -9.2631         2.000       
      86       -9.5692         2.000       
      85       -9.6737         2.000       
      84       -9.7707         2.000       
      83       -9.9032         2.000       
      82      -10.0140         2.000       
      81      -10.0659         2.000       
      80      -10.1552         2.000       
      79      -10.2835         2.000       
      78      -10.5212         2.000       
      77      -10.5828         2.000       
      76      -10.7344         2.000       
      75      -10.8183         2.000       
      74      -10.9065         2.000       
      73      -10.9350         2.000       
      72      -10.9879         2.000       
      71      -11.1039         2.000       
      70      -11.2340         2.000       
      69      -11.4334         2.000       
      68      -11.4759         2.000       
      67      -11.6668         2.000       
      66      -11.8214         2.000       
      65      -11.9581         2.000       
      64      -12.2129         2.000       
      63      -12.7797         2.000       
      62      -13.1479         2.000       
      61      -13.3636         2.000       
      60      -13.6357         2.000       
      59      -13.9189         2.000       
      58      -14.1327         2.000       
      57      -14.2884         2.000       
      56      -14.3371         2.000       
      55      -14.5104         2.000       
      54      -14.9391         2.000       
      53      -15.0454         2.000       
      52      -15.1772         2.000       
      51      -15.3312         2.000       
      50      -15.7712         2.000       
      49      -16.7133         2.000       
      48      -17.4766         2.000       
      47      -17.8516         2.000       
      46      -17.9157         2.000       
      45      -18.3292         2.000       
      44      -18.5191         2.000       
      43      -18.5423         2.000       
      42      -18.8497         2.000       
      41      -19.3908         2.000       
      40      -20.7016         2.000       
      39      -21.1449         2.000       
      38      -21.7231         2.000       
      37      -22.2947         2.000       
      36      -23.5734         2.000       
      35      -26.2823         2.000       
      34      -27.5773         2.000       
      33      -30.1046         2.000       
      32      -30.2903         2.000       
      31      -32.5740         2.000       
      30     -269.9172         2.000       
      29     -270.0116         2.000       
      28     -270.0136         2.000       
      27     -270.0592         2.000       
      26     -270.0713         2.000       
      25     -270.0867         2.000       
      24     -270.0982         2.000       
      23     -270.1018         2.000       
      22     -270.1028         2.000       
      21     -270.1793         2.000       
      20     -270.2064         2.000       
      19     -270.2635         2.000       
      18     -270.3211         2.000       
      17     -270.3516         2.000       
      16     -270.4166         2.000       
      15     -270.4885         2.000       
      14     -270.8586         2.000       
      13     -270.8970         2.000       
      12     -270.9563         2.000       
      11     -271.3457         2.000       
      10     -272.2507         2.000       
       9     -273.2084         2.000       
       8     -276.3589         2.000       
       7     -382.9255         2.000       
       6     -383.8442         2.000       
       5     -384.4281         2.000       
       4     -510.9725         2.000       
       3     -661.8435         2.000       
       2     -661.9059         2.000       
       1     -662.0041         2.000       

AMS application finished. Exiting.
NORMAL TERMINATION
     Total cpu time:    1024.17
  Total system time:       5.38
 Total elapsed time:    1035.94
NORMAL TERMINATION
