srun: Step created for StepId=663081.69

 *******************************************************************************
 *                                                                             *
 *  --------------------------------                                           *
 *   Amsterdam Modeling Suite (AMS)              2026.103                      *
 *  --------------------------------                                           *
 *                                               r260501 2026-05-01 873454b5   *
 *                                                                             *
 *                                                                             *
 *                              =================                              *
 *                              |               |                              *
 *                              |     A M S     |                              *
 *                              |               |                              *
 *                              =================                              *
 *                                                                             *
 *                                                                             *
 *   Online information and documentation:  https://www.scm.com/support/       *
 *   E-mail:  support@scm.com   info@scm.com                                   *
 *                                                                             *
 *   Scientific publications using AMS results must be properly referenced     *
 *   See the User Manuals (or the web site) for recommended citations          *
 *   The terms and conditions of the End User License Agreement apply to       *
 *   the use of AMS, https://www.scm.com/license-terms/                        *
 *                                                                             *
 **********************  x86_64_linux_intel / intelmpi  ************************
 
 Licensed to: Jong-June Jeon / University of Seoul 2026-06-02 13:44:15
 SCM User ID: u30731
  
 AMS 2026.103  RunTime: Jun03-2026 23:39:24  ShM Nodes: 1  Procs: 1

 AMS jobname: c5_fragB_opt
 AMS jobid  : 543052871

 Start   directory: /gpfs/home1/yeseo1ee/projects/eda-asm-prediction/ADF_800/adf_outputs/batch_005/qmrxn20_sn2_A_A_D_E_A_B/
 Results directory: /gpfs/home1/yeseo1ee/projects/eda-asm-prediction/ADF_800/adf_outputs/batch_005/qmrxn20_sn2_A_A_D_E_A_B/c5_fragB_opt.results/
 Scratch directory: /tmp/amstmp_c5_fragB_opt_kid0.543052871/

 RNG seed: -933167051 1572861860 -224069120 -1428087308 329717775 -1029882004 1112303818 1590010876



                      ************************************************************************
                      *  ADF 2026.103  RunTime: Jun03-2026 23:39:24  ShM Nodes: 1  Procs: 1  *
                      ************************************************************************
  

       ***************************
       *  GEOMETRY OPTIMIZATION  *
       ***************************

Optimization Method                    Quasi Newton
Optimization Coordinates               Delocalized Coordinates
Optimize lattice                       F
 
 ------------------------------------------------------
 Convergence criteria (Hartree,Angstrom)
 ------------------------------------------------------
 Maximum gradient               0.000100000000
 Maximum rms gradient           0.000066666667
 Maximum step allowed           0.010000000000
 Maximum rms step allowed       0.006666666667
 Maximum energy change allowe   0.000130000000
 Maximum stress energy allowe   0.000500000000
 
Initial model Hessian                  Automatic Hessian
 
------------------------------------
Quasi-Newton Optimizer Parameters
------------------------------------
Hessian Update Method                  BFGS
Maximum number of steps                  200
First GDIIS cycle                          0
Maximum GDIIS vectors                      0
Trust radius (bohr)                        0.200000
Trust radius varies                        T
Constraints converged at all steps         T
Use projector                              T
 
 Rigid motions settings for: old optimizer
 Atomic rotations (x,y,z):     T T T
 Atomic translations (x,y,z):  T T T
 Tolerance:                  1.000000000000000E-006

--------
Geometry
--------
Formula: C3H8FN
Atoms
  Index Symbol   x (angstrom)   y (angstrom)   z (angstrom)
      1      C     0.59534996     0.01759117    -0.03349117
      2      H     1.70935191     1.78253871    -0.17791814
      3      F    -1.15542037    -0.10920788    -0.31460595
      4      C     0.65641198     1.53079238    -0.06817646
      5      H     0.82637143    -0.52938285    -0.92966506
      6      H     0.45581005    -0.50774525     0.88954376
      7      C     0.14083845     2.08035200     1.26000865
      8      H    -0.88555954     1.73689080     1.40733027
      9      H     0.77058572     1.71409014     2.07615049
     10      H     0.15937283     3.17753932     1.27163908
     11      N    -0.07506863     2.03529529    -1.24163444
     12      H    -0.26904690     3.02156497    -1.10118989
     13      H    -0.95472009     1.52709639    -1.21783694

Total System Charge              0.00000


----------------
ADF Engine Input
----------------
 
   Basis
     Type TZ2P
     Core None
   End
   XC
     GGA BLYP
     Dispersion GRIMME3 BJDAMP
   End
   Symmetry NOSYM
   NumericalQuality Normal
   Unrestricted No
   SCF
     Iterations 200
     Converge 1.0e-6
   End
   Save TAPE21
 

 Title: *** (NO TITLE) ***

 Using automatic Hessian for delocalized coordinates.
 *** GO1_GOStep1 ***

 Energy gradients wrt nuclear displacements
 ==========================================

     Atom      Cartesian (a.u./angstrom)
                 X         Y         Z
 ----------------------------------------
     1 C     0.156750 -0.025231  0.046863
     2 H    -0.021021 -0.008137  0.001793
     3 F    -0.060453  0.018458 -0.015506
     4 C    -0.007937  0.008476 -0.012080
     5 H    -0.026045  0.008653  0.005844
     6 H    -0.033907  0.007603 -0.020772
     7 C    -0.002267 -0.006218 -0.009515
     8 H     0.003192 -0.001520 -0.004293
     9 H    -0.000110 -0.001496 -0.009478
    10 H    -0.001038  0.001479  0.000163
    11 N    -0.018971  0.010253  0.006085
    12 H    -0.000433 -0.009526  0.002122
    13 H     0.012242 -0.002796  0.008772
 ----------------------------------------
 
----------------------------------------------------------------------
Geometry Convergence after Step   1       (Hartree/Angstrom,Angstrom)
----------------------------------------------------------------------
current energy                               -2.39860286 Hartree
energy change                      -2.39860286     0.00013000    F
constrained gradient max            0.15659571     0.00010000    F
constrained gradient rms            0.03036098     0.00006667    F
gradient max                        0.15659571
gradient rms                        0.03036098
cart. step max                      0.16883056     0.01000000    F
cart. step rms                      0.03350622     0.00666667    F
 

--------
Geometry
--------
Formula: C3H8FN
Atoms
  Index Symbol   x (angstrom)   y (angstrom)   z (angstrom)
      1      C     0.56034233     0.01681512    -0.04640188
      2      H     1.70428709     1.77002227    -0.17900189
      3      F    -1.14529667    -0.27803844    -0.29606393
      4      C     0.63855315     1.53380060    -0.06624330
      5      H     0.82710522    -0.52558473    -0.94273864
      6      H     0.47305172    -0.51152682     0.88941458
      7      C     0.14137444     2.09399445     1.27531556
      8      H    -0.89355614     1.77871311     1.43521995
      9      H     0.76279337     1.71972668     2.09783047
     10      H     0.18638584     3.18983948     1.28398363
     11      N    -0.07012508     2.05705630    -1.25088275
     12      H    -0.23919500     3.05244427    -1.11728466
     13      H    -0.97144347     1.58015292    -1.26299295

Total System Charge              0.00000

 *** GO1_GOStep2 ***

 Energy gradients wrt nuclear displacements
 ==========================================

     Atom      Cartesian (a.u./angstrom)
                 X         Y         Z
 ----------------------------------------
     1 C     0.144868 -0.001046  0.036946
     2 H    -0.010510 -0.002730 -0.000038
     3 F    -0.066728 -0.014551 -0.009179
     4 C    -0.003178  0.012736 -0.011133
     5 H    -0.025309  0.002698 -0.001204
     6 H    -0.037433  0.001514 -0.011817
     7 C    -0.001664 -0.003184 -0.003437
     8 H     0.002349 -0.001147 -0.002733
     9 H     0.000246 -0.000883 -0.004234
    10 H    -0.000544  0.000438  0.000296
    11 N    -0.009370  0.012500 -0.000984
    12 H    -0.000062 -0.004109  0.002347
    13 H     0.007336 -0.002236  0.005172
 ----------------------------------------

 dE(predicted):    -0.93889E-02, dE(actual):    -0.83341E-02, Trust radius:    0.400000, all in a.u.
 
----------------------------------------------------------------------
Geometry Convergence after Step   2       (Hartree/Angstrom,Angstrom)
----------------------------------------------------------------------
current energy                               -2.40693696 Hartree
energy change                      -0.00833411     0.00013000    F
constrained gradient max            0.14470281     0.00010000    F
constrained gradient rms            0.02778990     0.00006667    F
gradient max                        0.14470281
gradient rms                        0.02778990
cart. step max                      0.06844756     0.01000000    F
cart. step rms                      0.03306053     0.00666667    F
 

--------
Geometry
--------
Formula: C3H8FN
Atoms
  Index Symbol   x (angstrom)   y (angstrom)   z (angstrom)
      1      C     0.49332973     0.01264153    -0.07603377
      2      H     1.69523965     1.72999131    -0.16730632
      3      F    -1.11289780    -0.34648600    -0.31373268
      4      C     0.60880139     1.52165353    -0.04654196
      5      H     0.84750834    -0.49714335    -0.97297605
      6      H     0.53358385    -0.52000556     0.87367085
      7      C     0.14007445     2.11191856     1.31019909
      8      H    -0.90726184     1.84501603     1.49540552
      9      H     0.74794039     1.73542677     2.14720738
     10      H     0.22666191     3.20446798     1.30092072
     11      N    -0.07638086     2.03532159    -1.25499780
     12      H    -0.21819355     3.04496153    -1.16102670
     13      H    -1.00412886     1.59965127    -1.31463407

Total System Charge              0.00000

 *** GO1_GOStep3 ***

 Energy gradients wrt nuclear displacements
 ==========================================

     Atom      Cartesian (a.u./angstrom)
                 X         Y         Z
 ----------------------------------------
     1 C     0.117372  0.028681  0.015581
     2 H     0.006858  0.000848 -0.002520
     3 F    -0.067581 -0.024391 -0.010953
     4 C    -0.003351  0.006962 -0.000654
     5 H    -0.017223 -0.004522 -0.009793
     6 H    -0.028917 -0.003284  0.003138
     7 C     0.000967  0.002933  0.004912
     8 H    -0.000355 -0.000962  0.000427
     9 H     0.000018  0.000186  0.003300
    10 H    -0.000237 -0.000728  0.000891
    11 N     0.000358 -0.006058 -0.005183
    12 H    -0.001936  0.003037  0.003241
    13 H    -0.005971 -0.002702 -0.002386
 ----------------------------------------

 dE(predicted):    -0.10913E-01, dE(actual):    -0.13236E-01, Trust radius:    0.800000, all in a.u.
 
----------------------------------------------------------------------
Geometry Convergence after Step   3       (Hartree/Angstrom,Angstrom)
----------------------------------------------------------------------
current energy                               -2.42017268 Hartree
energy change                      -0.01323572     0.00013000    F
constrained gradient max            0.11717538     0.00010000    F
constrained gradient rms            0.02358291     0.00006667    F
gradient max                        0.11717538
gradient rms                        0.02358291
cart. step max                      0.16825203     0.01000000    F
cart. step rms                      0.06184597     0.00666667    F
 

--------
Geometry
--------
Formula: C3H8FN
Atoms
  Index Symbol   x (angstrom)   y (angstrom)   z (angstrom)
      1      C     0.36339195    -0.02495960    -0.09736904
      2      H     1.64934543     1.62382734    -0.16583728
      3      F    -1.01782170    -0.45723358    -0.24832039
      4      C     0.53741175     1.47264418    -0.04146068
      5      H     0.88681770    -0.43872685    -0.97357333
      6      H     0.70183589    -0.47757238     0.85109150
      7      C     0.11390463     2.10992056     1.32614969
      8      H    -0.95067693     1.93287255     1.53991884
      9      H     0.69772202     1.71218827     2.17552186
     10      H     0.28152605     3.19187676     1.29077967
     11      N    -0.08954356     2.04555927    -1.25927973
     12      H    -0.14158919     3.07145067    -1.19969468
     13      H    -1.05804722     1.71556801    -1.37777225

Total System Charge              0.00000

 *** GO1_GOStep4 ***

 Energy gradients wrt nuclear displacements
 ==========================================

     Atom      Cartesian (a.u./angstrom)
                 X         Y         Z
 ----------------------------------------
     1 C     0.003375  0.034000 -0.006652
     2 H     0.024635  0.003396 -0.007401
     3 F    -0.013838 -0.018223 -0.004692
     4 C    -0.007335 -0.022367  0.001919
     5 H     0.002227  0.000010 -0.008474
     6 H    -0.002297  0.001777  0.012286
     7 C     0.002349  0.006728  0.010437
     8 H    -0.003175 -0.000244  0.003932
     9 H     0.000568  0.000568  0.009084
    10 H     0.000404 -0.002042 -0.000055
    11 N     0.008780 -0.014206 -0.002567
    12 H    -0.003856  0.010768  0.000104
    13 H    -0.011838 -0.000164 -0.007921
 ----------------------------------------

 dE(predicted):    -0.18773E-01, dE(actual):    -0.16407E-01, Trust radius:    1.000000, all in a.u.
 
----------------------------------------------------------------------
Geometry Convergence after Step   4       (Hartree/Angstrom,Angstrom)
----------------------------------------------------------------------
current energy                               -2.43657975 Hartree
energy change                      -0.01640706     0.00013000    F
constrained gradient max            0.03395299     0.00010000    F
constrained gradient rms            0.01027263     0.00006667    F
gradient max                        0.03395299
gradient rms                        0.01027263
cart. step max                      0.14845955     0.01000000    F
cart. step rms                      0.04079757     0.00666667    F
 

--------
Geometry
--------
Formula: C3H8FN
Atoms
  Index Symbol   x (angstrom)   y (angstrom)   z (angstrom)
      1      C     0.37331353    -0.04102719    -0.09428824
      2      H     1.63727810     1.62285609    -0.14159279
      3      F    -1.00905964    -0.42059136    -0.09986084
      4      C     0.53461940     1.46628287    -0.04346829
      5      H     0.82078283    -0.45123232    -1.01073932
      6      H     0.81994156    -0.51153755     0.79576571
      7      C     0.08242625     2.10340537     1.30473899
      8      H    -0.98483833     1.92117946     1.49099651
      9      H     0.65389933     1.70114565     2.15642750
     10      H     0.24625740     3.18698932     1.27537947
     11      N    -0.07173072     2.05756721    -1.25782856
     12      H    -0.07976909     3.08028237    -1.20051102
     13      H    -1.04884383     1.76209528    -1.35486492

Total System Charge              0.00000

 *** GO1_GOStep5 ***

 Energy gradients wrt nuclear displacements
 ==========================================

     Atom      Cartesian (a.u./angstrom)
                 X         Y         Z
 ----------------------------------------
     1 C    -0.002492  0.011942 -0.006205
     2 H     0.013854  0.001333 -0.004094
     3 F    -0.000366 -0.003342  0.000215
     4 C    -0.014400 -0.016806 -0.001038
     5 H     0.003603 -0.001307 -0.002659
     6 H     0.000980 -0.001166  0.004955
     7 C     0.001463  0.007593  0.006186
     8 H    -0.002148 -0.000074  0.001920
     9 H     0.000759  0.000126  0.003980
    10 H    -0.000081 -0.000594  0.000333
    11 N     0.005259 -0.002272  0.001109
    12 H    -0.001938  0.004902 -0.000580
    13 H    -0.004493 -0.000335 -0.004123
 ----------------------------------------

 dE(predicted):    -0.20156E-02, dE(actual):    -0.27373E-02, Trust radius:    1.000000, all in a.u.
 
----------------------------------------------------------------------
Geometry Convergence after Step   5       (Hartree/Angstrom,Angstrom)
----------------------------------------------------------------------
current energy                               -2.43931707 Hartree
energy change                      -0.00273732     0.00013000    F
constrained gradient max            0.01686181     0.00010000    F
constrained gradient rms            0.00547920     0.00006667    F
gradient max                        0.01686181
gradient rms                        0.00547920
cart. step max                      0.11244389     0.01000000    F
cart. step rms                      0.03358968     0.00666667    F
 

--------
Geometry
--------
Formula: C3H8FN
Atoms
  Index Symbol   x (angstrom)   y (angstrom)   z (angstrom)
      1      C     0.38671667    -0.03489375    -0.08487216
      2      H     1.64370011     1.64382277    -0.12405864
      3      F    -1.01418588    -0.37456655     0.01258305
      4      C     0.55472988     1.47797442    -0.04998962
      5      H     0.75203338    -0.45494888    -1.02799290
      6      H     0.88943343    -0.51898442     0.76046679
      7      C     0.06297745     2.08756481     1.28213145
      8      H    -1.00351256     1.88184466     1.43081599
      9      H     0.62211758     1.67583325     2.13306420
     10      H     0.20862263     3.17469922     1.27373488
     11      N    -0.05675969     2.05764882    -1.26226598
     12      H    -0.03153323     3.07606080    -1.21792466
     13      H    -1.04006297     1.78536002    -1.30553821

Total System Charge              0.00000

 *** GO1_GOStep6 ***

 Energy gradients wrt nuclear displacements
 ==========================================

     Atom      Cartesian (a.u./angstrom)
                 X         Y         Z
 ----------------------------------------
     1 C     0.009292  0.004041 -0.001391
     2 H     0.000535 -0.000523  0.000239
     3 F    -0.009998 -0.000948  0.001562
     4 C    -0.004683 -0.001978 -0.003021
     5 H     0.002712 -0.000499  0.001553
     6 H     0.001469 -0.000631 -0.001647
     7 C    -0.000036  0.000666  0.001452
     8 H    -0.000631 -0.000177 -0.000238
     9 H     0.000364 -0.000156 -0.001109
    10 H    -0.000321  0.000031 -0.000471
    11 N    -0.000915  0.003546  0.002570
    12 H    -0.000230 -0.002407  0.000390
    13 H     0.002441 -0.000965  0.000111
 ----------------------------------------

 dE(predicted):    -0.78742E-03, dE(actual):    -0.75976E-03, Trust radius:    1.000000, all in a.u.
 
----------------------------------------------------------------------
Geometry Convergence after Step   6       (Hartree/Angstrom,Angstrom)
----------------------------------------------------------------------
current energy                               -2.44007683 Hartree
energy change                      -0.00075976     0.00013000    F
constrained gradient max            0.01032466     0.00010000    F
constrained gradient rms            0.00275219     0.00006667    F
gradient max                        0.01032466
gradient rms                        0.00275219
cart. step max                      0.01946540     0.01000000    F
cart. step rms                      0.00810298     0.00666667    F
 

--------
Geometry
--------
Formula: C3H8FN
Atoms
  Index Symbol   x (angstrom)   y (angstrom)   z (angstrom)
      1      C     0.38341694    -0.03489555    -0.08281918
      2      H     1.64477140     1.64759953    -0.12174463
      3      F    -0.99541100    -0.37566106     0.02575397
      4      C     0.55725668     1.47977869    -0.04893437
      5      H     0.73366100    -0.45255128    -1.03346987
      6      H     0.89982581    -0.51934132     0.75502248
      7      C     0.05942859     2.08526202     1.28204188
      8      H    -1.00685879     1.87690805     1.42581946
      9      H     0.61356134     1.67323186     2.13623358
     10      H     0.20228657     3.17278524     1.27795534
     11      N    -0.05737296     2.05202465    -1.26471721
     12      H    -0.01259954     3.07122365    -1.23739006
     13      H    -1.04768923     1.80105071    -1.29359722

Total System Charge              0.00000

 *** GO1_GOStep7 ***

 Energy gradients wrt nuclear displacements
 ==========================================

     Atom      Cartesian (a.u./angstrom)
                 X         Y         Z
 ----------------------------------------
     1 C    -0.005860  0.002646  0.001068
     2 H     0.000067 -0.000519  0.000857
     3 F     0.008640  0.001617 -0.000898
     4 C    -0.001791  0.000290 -0.001998
     5 H    -0.000683 -0.001284  0.000705
     6 H     0.000179 -0.000806 -0.001168
     7 C    -0.000324 -0.000632  0.000922
     8 H    -0.000091 -0.000199 -0.000206
     9 H     0.000022  0.000021 -0.000690
    10 H    -0.000274 -0.000053 -0.000390
    11 N    -0.000701  0.000995  0.001717
    12 H    -0.000365 -0.001478  0.000277
    13 H     0.001182 -0.000599 -0.000198
 ----------------------------------------

 dE(predicted):    -0.15846E-03, dE(actual):    -0.15719E-03, Trust radius:    1.000000, all in a.u.
 
----------------------------------------------------------------------
Geometry Convergence after Step   7       (Hartree/Angstrom,Angstrom)
----------------------------------------------------------------------
current energy                               -2.44023403 Hartree
energy change                      -0.00015719     0.00013000    F
constrained gradient max            0.00830598     0.00010000    F
constrained gradient rms            0.00191613     0.00006667    F
gradient max                        0.00830598
gradient rms                        0.00191613
cart. step max                      0.01280732     0.01000000    F
cart. step rms                      0.00418194     0.00666667    T
 

--------
Geometry
--------
Formula: C3H8FN
Atoms
  Index Symbol   x (angstrom)   y (angstrom)   z (angstrom)
      1      C     0.38462565    -0.03692132    -0.08285864
      2      H     1.64396599     1.64860391    -0.12627100
      3      F    -1.00192896    -0.38093265     0.01294665
      4      C     0.55688942     1.47855910    -0.04912759
      5      H     0.74569838    -0.45131317    -1.03086149
      6      H     0.89197388    -0.51738915     0.76272477
      7      C     0.06167378     2.08567024     1.28255306
      8      H    -1.00407206     1.87627956     1.42889136
      9      H     0.61689304     1.67509146     2.13709433
     10      H     0.20323287     3.17335752     1.27855398
     11      N    -0.06053903     2.05077553    -1.26475805
     12      H    -0.01122382     3.07064720    -1.24080653
     13      H    -1.05291234     1.80498694    -1.28792666

Total System Charge              0.00000

 *** GO1_GOStep8 ***

 Energy gradients wrt nuclear displacements
 ==========================================

     Atom      Cartesian (a.u./angstrom)
                 X         Y         Z
 ----------------------------------------
     1 C    -0.001085  0.001885  0.000610
     2 H     0.000207  0.000019  0.000461
     3 F     0.001189 -0.000186 -0.000263
     4 C    -0.000532 -0.000619 -0.001614
     5 H     0.000384 -0.000308  0.000118
     6 H     0.000686 -0.000138 -0.000510
     7 C    -0.000280 -0.000174  0.000660
     8 H     0.000004 -0.000239 -0.000102
     9 H    -0.000028  0.000055 -0.000318
    10 H    -0.000327 -0.000035 -0.000084
    11 N     0.000017  0.000609  0.001182
    12 H    -0.000545 -0.000300  0.000058
    13 H     0.000309 -0.000570 -0.000198
 ----------------------------------------

 dE(predicted):    -0.50944E-04, dE(actual):    -0.24668E-04, Trust radius:    1.000000, all in a.u.
 
----------------------------------------------------------------------
Geometry Convergence after Step   8       (Hartree/Angstrom,Angstrom)
----------------------------------------------------------------------
current energy                               -2.44025869 Hartree
energy change                      -0.00002467     0.00013000    T
constrained gradient max            0.00183118     0.00010000    F
constrained gradient rms            0.00058954     0.00006667    F
gradient max                        0.00183118
gradient rms                        0.00058954
cart. step max                      0.01003753     0.01000000    F
cart. step rms                      0.00352911     0.00666667    T
 

--------
Geometry
--------
Formula: C3H8FN
Atoms
  Index Symbol   x (angstrom)   y (angstrom)   z (angstrom)
      1      C     0.38703612    -0.03877908    -0.08282768
      2      H     1.64252236     1.65112291    -0.12941268
      3      F    -1.00134998    -0.38331483     0.01058214
      4      C     0.55653621     1.47817946    -0.04890627
      5      H     0.74921664    -0.45107154    -1.03122898
      6      H     0.89067282    -0.51815317     0.76553619
      7      C     0.06118833     2.08525143     1.28257257
      8      H    -1.00416547     1.87402983     1.42934406
      9      H     0.61626861     1.67580707     2.13800670
     10      H     0.20066819     3.17320909     1.27935552
     11      N    -0.06327931     2.04817076    -1.26548906
     12      H    -0.00182926     3.06793879    -1.24899196
     13      H    -1.05920847     1.81502448    -1.27838634

Total System Charge              0.00000

 *** GO1_GOStep9 ***

 Energy gradients wrt nuclear displacements
 ==========================================

     Atom      Cartesian (a.u./angstrom)
                 X         Y         Z
 ----------------------------------------
     1 C     0.000825  0.000579  0.000147
     2 H    -0.000137  0.000123  0.000187
     3 F    -0.000231 -0.000422 -0.000065
     4 C    -0.000064 -0.000155 -0.000683
     5 H     0.000304  0.000026 -0.000245
     6 H     0.000341  0.000041 -0.000059
     7 C    -0.000226 -0.000001  0.000272
     8 H     0.000048 -0.000266 -0.000030
     9 H    -0.000075  0.000079 -0.000033
    10 H    -0.000370 -0.000010  0.000137
    11 N     0.000266  0.000208  0.000450
    12 H    -0.000572  0.000187  0.000009
    13 H    -0.000108 -0.000389 -0.000088
 ----------------------------------------

 dE(predicted):    -0.11314E-04, dE(actual):    -0.86081E-05, Trust radius:    1.000000, all in a.u.
 
----------------------------------------------------------------------
Geometry Convergence after Step   9       (Hartree/Angstrom,Angstrom)
----------------------------------------------------------------------
current energy                               -2.44026730 Hartree
energy change                      -0.00000861     0.00013000    T
constrained gradient max            0.00069119     0.00010000    F
constrained gradient rms            0.00024134     0.00006667    F
gradient max                        0.00069119
gradient rms                        0.00024134
cart. step max                      0.01154889     0.01000000    F
cart. step rms                      0.00369820     0.00666667    T
 

--------
Geometry
--------
Formula: C3H8FN
Atoms
  Index Symbol   x (angstrom)   y (angstrom)   z (angstrom)
      1      C     0.38773678    -0.04038126    -0.08233583
      2      H     1.64087254     1.65274073    -0.13184760
      3      F    -0.99974453    -0.38596979     0.01111650
      4      C     0.55572533     1.47757970    -0.04887513
      5      H     0.75178854    -0.45009027    -1.03095863
      6      H     0.89282000    -0.51749158     0.76639822
      7      C     0.05988115     2.08432149     1.28209564
      8      H    -1.00541374     1.87222160     1.42870920
      9      H     0.61451956     1.67506918     2.13804250
     10      H     0.19842458     3.17238645     1.27931103
     11      N    -0.06611181     2.04571277    -1.26600739
     12      H     0.00915933     3.06474278    -1.25695372
     13      H    -1.06538093     1.82657337    -1.26854060

Total System Charge              0.00000

 *** GO1_GOStep10 ***

 Energy gradients wrt nuclear displacements
 ==========================================

     Atom      Cartesian (a.u./angstrom)
                 X         Y         Z
 ----------------------------------------
     1 C     0.000174 -0.000752  0.000032
     2 H    -0.000337  0.000246  0.000018
     3 F    -0.000187 -0.000255 -0.000052
     4 C     0.000587  0.000305  0.000015
     5 H     0.000526  0.000469 -0.000211
     6 H     0.000480  0.000402 -0.000049
     7 C    -0.000225 -0.000095 -0.000092
     8 H    -0.000004 -0.000292  0.000018
     9 H    -0.000073  0.000034  0.000068
    10 H    -0.000358 -0.000023  0.000156
    11 N     0.000097 -0.000037 -0.000037
    12 H    -0.000487  0.000204  0.000071
    13 H    -0.000193 -0.000207  0.000062
 ----------------------------------------

 dE(predicted):    -0.48118E-05, dE(actual):    -0.58543E-05, Trust radius:    1.000000, all in a.u.
 
----------------------------------------------------------------------
Geometry Convergence after Step  10       (Hartree/Angstrom,Angstrom)
----------------------------------------------------------------------
current energy                               -2.44027316 Hartree
energy change                      -0.00000585     0.00013000    T
constrained gradient max            0.00080774     0.00010000    F
constrained gradient rms            0.00021801     0.00006667    F
gradient max                        0.00080774
gradient rms                        0.00021801
cart. step max                      0.00367823     0.01000000    T
cart. step rms                      0.00118030     0.00666667    T
 

--------
Geometry
--------
Formula: C3H8FN
Atoms
  Index Symbol   x (angstrom)   y (angstrom)   z (angstrom)
      1      C     0.38888663    -0.04044151    -0.08227069
      2      H     1.64033591     1.65396026    -0.13243138
      3      F    -0.99837065    -0.38623807     0.01163408
      4      C     0.55530430     1.47769127    -0.04886524
      5      H     0.75162662    -0.45103498    -1.03094170
      6      H     0.89315634    -0.51833643     0.76652891
      7      C     0.05930153     2.08406011     1.28211742
      8      H    -1.00597767     1.87156550     1.42883369
      9      H     0.61413692     1.67483069     2.13796217
     10      H     0.19743672     3.17216037     1.27928473
     11      N    -0.06706538     2.04514757    -1.26615546
     12      H     0.01273530     3.06379883    -1.25946981
     13      H    -1.06722977     1.83025159    -1.26607253

Total System Charge              0.00000

 *** GO1_GOStep11 ***

 Energy gradients wrt nuclear displacements
 ==========================================

     Atom      Cartesian (a.u./angstrom)
                 X         Y         Z
 ----------------------------------------
     1 C     0.000616 -0.000503 -0.000088
     2 H    -0.000215  0.000232 -0.000031
     3 F     0.000325 -0.000156 -0.000083
     4 C     0.000128  0.000467  0.000261
     5 H     0.000224  0.000245 -0.000172
     6 H     0.000203  0.000166 -0.000008
     7 C    -0.000157 -0.000077 -0.000116
     8 H    -0.000087 -0.000297  0.000038
     9 H    -0.000058  0.000002  0.000072
    10 H    -0.000356 -0.000034  0.000128
    11 N    -0.000044 -0.000004 -0.000173
    12 H    -0.000413  0.000110  0.000107
    13 H    -0.000164 -0.000153  0.000065
 ----------------------------------------

 dE(predicted):    -0.10674E-05, dE(actual):    -0.53386E-05, Trust radius:    1.000000, all in a.u.
 
----------------------------------------------------------------------
Geometry Convergence after Step  11       (Hartree/Angstrom,Angstrom)
----------------------------------------------------------------------
current energy                               -2.44027849 Hartree
energy change                      -0.00000534     0.00013000    T
constrained gradient max            0.00055959     0.00010000    F
constrained gradient rms            0.00014884     0.00006667    F
gradient max                        0.00055959
gradient rms                        0.00014884
cart. step max                      0.00077385     0.01000000    T
cart. step rms                      0.00026541     0.00666667    T
 

--------
Geometry
--------
Formula: C3H8FN
Atoms
  Index Symbol   x (angstrom)   y (angstrom)   z (angstrom)
      1      C     0.38867481    -0.04032471    -0.08221576
      2      H     1.64013022     1.65393323    -0.13235037
      3      F    -0.99821003    -0.38659575     0.01201101
      4      C     0.55499212     1.47758386    -0.04892020
      5      H     0.75174763    -0.45105787    -1.03069147
      6      H     0.89377170    -0.51806973     0.76620916
      7      C     0.05912745     2.08395986     1.28212749
      8      H    -1.00621093     1.87170336     1.42889073
      9      H     0.61402784     1.67451652     2.13778978
     10      H     0.19751074     3.17202114     1.27917011
     11      N    -0.06727049     2.04515235    -1.26608645
     12      H     0.01350915     3.06367206    -1.25978732
     13      H    -1.06752342     1.83092086    -1.26599250

Total System Charge              0.00000

 *** GO1_GOStep12 ***

 Energy gradients wrt nuclear displacements
 ==========================================

     Atom      Cartesian (a.u./angstrom)
                 X         Y         Z
 ----------------------------------------
     1 C     0.000291 -0.000272 -0.000072
     2 H    -0.000104  0.000266 -0.000012
     3 F     0.000443 -0.000140 -0.000097
     4 C     0.000018  0.000308  0.000193
     5 H     0.000303  0.000216 -0.000085
     6 H     0.000302  0.000153 -0.000085
     7 C    -0.000134 -0.000095 -0.000064
     8 H    -0.000112 -0.000295  0.000032
     9 H    -0.000052 -0.000011  0.000028
    10 H    -0.000352 -0.000042  0.000094
    11 N    -0.000126  0.000032 -0.000098
    12 H    -0.000370  0.000039  0.000116
    13 H    -0.000106 -0.000160  0.000050
 ----------------------------------------

 dE(predicted):    -0.24159E-06, dE(actual):    -0.12263E-05, Trust radius:    1.000000, all in a.u.
 
----------------------------------------------------------------------
Geometry Convergence after Step  12       (Hartree/Angstrom,Angstrom)
----------------------------------------------------------------------
current energy                               -2.44027972 Hartree
energy change                      -0.00000123     0.00013000    T
constrained gradient max            0.00032892     0.00010000    F
constrained gradient rms            0.00008107     0.00006667    F
gradient max                        0.00032892
gradient rms                        0.00008107
cart. step max                      0.00071435     0.01000000    T
cart. step rms                      0.00022377     0.00666667    T
 

--------
Geometry
--------
Formula: C3H8FN
Atoms
  Index Symbol   x (angstrom)   y (angstrom)   z (angstrom)
      1      C     0.38864014    -0.04021648    -0.08220201
      2      H     1.63995276     1.65400899    -0.13230394
      3      F    -0.99813019    -0.38694881     0.01233520
      4      C     0.55476633     1.47749799    -0.04896516
      5      H     0.75177930    -0.45109226    -1.03060526
      6      H     0.89421931    -0.51794168     0.76598646
      7      C     0.05899856     2.08389229     1.28218071
      8      H    -1.00636761     1.87178873     1.42896110
      9      H     0.61390730     1.67431647     2.13774530
     10      H     0.19752127     3.17193022     1.27917978
     11      N    -0.06744046     2.04512564    -1.26601799
     12      H     0.01422351     3.06355641    -1.26026199
     13      H    -1.06779343     1.83149769    -1.26587802

Total System Charge              0.00000

 *** GO1_GOStep13 ***

 Energy gradients wrt nuclear displacements
 ==========================================

     Atom      Cartesian (a.u./angstrom)
                 X         Y         Z
 ----------------------------------------
     1 C     0.000213 -0.000012 -0.000078
     2 H    -0.000040  0.000298  0.000004
     3 F     0.000402 -0.000177 -0.000094
     4 C    -0.000055  0.000136  0.000108
     5 H     0.000349  0.000178 -0.000055
     6 H     0.000359  0.000123 -0.000111
     7 C    -0.000121 -0.000094 -0.000010
     8 H    -0.000114 -0.000290  0.000028
     9 H    -0.000055 -0.000013  0.000004
    10 H    -0.000354 -0.000046  0.000083
    11 N    -0.000162  0.000041 -0.000018
    12 H    -0.000338  0.000024  0.000104
    13 H    -0.000084 -0.000170  0.000036
 ----------------------------------------
 
----------------------------------------------------------------------
Geometry Convergence after Step  13       (Hartree/Angstrom,Angstrom)
----------------------------------------------------------------------
current energy                               -2.44028003 Hartree
energy change                      -0.00000031     0.00013000    T
constrained gradient max            0.00010198     0.00010000    F
constrained gradient rms            0.00003114     0.00006667    T
gradient max                        0.00010198
gradient rms                        0.00003114
cart. step max                      0.00032182     0.01000000    T
cart. step rms                      0.00011090     0.00666667    T
 

--------
Geometry
--------
Formula: C3H8FN
Atoms
  Index Symbol   x (angstrom)   y (angstrom)   z (angstrom)
      1      C     0.38868115    -0.04019830    -0.08220116
      2      H     1.63988539     1.65405991    -0.13229255
      3      F    -0.99808952    -0.38709949     0.01258460
      4      C     0.55471265     1.47747048    -0.04898357
      5      H     0.75167722    -0.45106523    -1.03067937
      6      H     0.89444125    -0.51793027     0.76589262
      7      C     0.05893826     2.08386681     1.28221345
      8      H    -1.00643275     1.87180041     1.42895572
      9      H     0.61379210     1.67425742     2.13779388
     10      H     0.19749379     3.17189918     1.27923998
     11      N    -0.06747760     2.04509689    -1.26600576
     12      H     0.01454533     3.06350289    -1.26054930
     13      H    -1.06789047     1.83175449    -1.26581433

Total System Charge              0.00000

 *** GO1_GOStep14 ***

 Energy gradients wrt nuclear displacements
 ==========================================

     Atom      Cartesian (a.u./angstrom)
                 X         Y         Z
 ----------------------------------------
     1 C     0.000240  0.000065 -0.000078
     2 H    -0.000044  0.000305  0.000009
     3 F     0.000355 -0.000200 -0.000088
     4 C    -0.000050  0.000080  0.000058
     5 H     0.000356  0.000170 -0.000068
     6 H     0.000368  0.000113 -0.000102
     7 C    -0.000126 -0.000088  0.000013
     8 H    -0.000107 -0.000288  0.000028
     9 H    -0.000060 -0.000009  0.000007
    10 H    -0.000356 -0.000046  0.000087
    11 N    -0.000156  0.000036  0.000014
    12 H    -0.000333  0.000035  0.000091
    13 H    -0.000089 -0.000172  0.000030
 ----------------------------------------
 
---------------------------------------------------------
Geometry Convergence after Step  14       ** CONVERGED **
---------------------------------------------------------
current energy                               -2.44027998 Hartree
energy change                       0.00000006     0.00013000    T
constrained gradient max            0.00005233     0.00010000    T
constrained gradient rms            0.00001445     0.00006667    T
gradient max                        0.00005233
gradient rms                        0.00001445
cart. step max                      0.00023183     0.01000000    T
cart. step rms                      0.00007604     0.00666667    T
 
Geometry optimization converged

Optimized geometry:

--------
Geometry
--------
Formula: C3H8FN
Atoms
  Index Symbol   x (angstrom)   y (angstrom)   z (angstrom)
      1      C     0.38868115    -0.04019830    -0.08220116
      2      H     1.63988539     1.65405991    -0.13229255
      3      F    -0.99808952    -0.38709949     0.01258460
      4      C     0.55471265     1.47747048    -0.04898357
      5      H     0.75167722    -0.45106523    -1.03067937
      6      H     0.89444125    -0.51793027     0.76589262
      7      C     0.05893826     2.08386681     1.28221345
      8      H    -1.00643275     1.87180041     1.42895572
      9      H     0.61379210     1.67425742     2.13779388
     10      H     0.19749379     3.17189918     1.27923998
     11      N    -0.06747760     2.04509689    -1.26600576
     12      H     0.01454533     3.06350289    -1.26054930
     13      H    -1.06789047     1.83175449    -1.26581433

Total System Charge              0.00000

Performing a single point calculation on the final geometry ...

 *** adf ***



 ===========================
 A T T A C H E D   F I L E S
 ===========================
  
 Restart/tmp/amstmp_c5_fragB_opt_kid0.543052871/GO1_GOStep14.rkf*** GO1_GOStep14 ***



 ===============================
 M O D E L   P A R A M E T E R S
 ===============================
  
 DENSITY FUNCTIONAL POTENTIAL (scf)
    LDA:                               Exchange only                           == Not Default ==
    Gradient Corrections:              Becke88 LYP                             == Not Default ==

 SPIN  (restricted / unrestr.)
    Molecule:                          Restricted                               
    Fragments:                         Restricted                               

 OTHER ASPECTS
    Relativistic Corrections:          scalar (ZORA,MAPA)                       

    Nuclear Charge Density Model:      Point Charge Nuclei                      
    Core Treatment:                    Frozen Orbital(s)                        

    Hyperfine or Zeeman Interaction:   ---                                      

 Settings for Grimme D3 dispersion correction

      damping                        BJ
      s6                          1.000
      s8                          2.700
      a1                          0.430
      a2                          4.236

 Other (technical) parameters

      alpha                      14.000
      version                         4
 



 ===============
 G E O M E T R Y  ***  3D  Molecule  ***
 ===============
  

 ATOMS
 =====                            X Y Z                    CHARGE
                                (Angstrom)             Nucl     +Core       At.Mass
                       --------------------------    ----------------       -------
    1  C               0.3887   -0.0402   -0.0822      6.00      6.00       12.0000
    2  H               1.6399    1.6541   -0.1323      1.00      1.00        1.0078
    3  F              -0.9981   -0.3871    0.0126      9.00      9.00       18.9984
    4  C               0.5547    1.4775   -0.0490      6.00      6.00       12.0000
    5  H               0.7517   -0.4511   -1.0307      1.00      1.00        1.0078
    6  H               0.8944   -0.5179    0.7659      1.00      1.00        1.0078
    7  C               0.0589    2.0839    1.2822      6.00      6.00       12.0000
    8  H              -1.0064    1.8718    1.4290      1.00      1.00        1.0078
    9  H               0.6138    1.6743    2.1378      1.00      1.00        1.0078
   10  H               0.1975    3.1719    1.2792      1.00      1.00        1.0078
   11  N              -0.0675    2.0451   -1.2660      7.00      7.00       14.0031
   12  H               0.0145    3.0635   -1.2605      1.00      1.00        1.0078
   13  H              -1.0679    1.8318   -1.2658      1.00      1.00        1.0078


 FRAGMENTS
 =========                                     Atoms in this Fragment     Cart. coord.s (Angstrom)
                                               -------------------------------------------------------
    1  C                                                 1  C            0.3887   -0.0402   -0.0822
    2  C                                                 4  C            0.5547    1.4775   -0.0490
    3  C                                                 7  C            0.0589    2.0839    1.2822
    4  H                                                 2  H            1.6399    1.6541   -0.1323
    5  H                                                 5  H            0.7517   -0.4511   -1.0307
    6  H                                                 6  H            0.8944   -0.5179    0.7659
    7  H                                                 8  H           -1.0064    1.8718    1.4290
    8  H                                                 9  H            0.6138    1.6743    2.1378
    9  H                                                10  H            0.1975    3.1719    1.2792
   10  H                                                12  H            0.0145    3.0635   -1.2605
   11  H                                                13  H           -1.0679    1.8318   -1.2658
   12  F                                                 3  F           -0.9981   -0.3871    0.0126
   13  N                                                11  N           -0.0675    2.0451   -1.2660


 Interatomic Distance Matrix (Angstrom)
 --------------------------------------

   1)     0.000
   2)     2.107   0.000
   3)     1.433   3.339   0.000
   4)     1.527   1.103   2.427   0.000
   5)     1.096   2.455   2.038   2.173   0.000
   6)     1.097   2.466   2.041   2.182   1.803   0.000
   7)     2.546   2.164   2.972   1.545   3.501   2.781   0.000
   8)     2.808   3.080   2.666   2.186   3.813   3.125   1.096   0.000
   9)     2.814   2.491   3.371   2.196   3.818   2.601   1.099   1.779   0.000
  10)     3.494   2.525   3.962   2.182   4.332   3.790   1.097   1.778   1.776   0.000
  11)     2.441   2.086   2.901   1.480   2.638   3.409   2.552   2.859   3.491   2.796
          0.000
  12)     3.341   2.429   3.815   2.068   3.598   4.208   2.725   3.114   3.720   2.549
          1.022   0.000
  13)     2.651   2.941   2.562   2.059   2.929   3.674   2.797   2.696   3.800   3.142
          1.023   1.640   0.000

 Min. Distance =    1.0217
 Max. Distance =    4.3323



 =====================================
 S Y M M E T R Y ,   E L E C T R O N S
 =====================================
  
 Symmetry: NOSYM

 Irreducible Representations, including subspecies
 -------------------------------------------------
 A


 Configuration of Valence Electrons
 ==================================
 ( determined in the SCF procedure )

 Total:   42

 Net Charge: 0 (Nuclei minus Electrons)

 Aufbau principle for MO occupations will be applied through SCF cycle no.     100
 Thereafter, the program will assign electrons to MOs that are spatially
 similar to the occupied MOs in a "reference" cycle ("KeepOrbitals").
 The reference cycle is always the PREVIOUS cycle: it will evolve with
 the SCF procedure.
 ***************************************************************************************************



                                      ****************************************
                                      *  B U I L D : (Fragments, Functions)  *
                                      ****************************************
  



 =======
 S F O s  ***  (Symmetrized Fragment Orbitals)  ***
 =======
  
 SFOs are linear combinations of (valence) Fragment Orbitals (FOs), such that the SFOs transform as the
 irreducible representations of the (molecular) symmetry group. Each SFO is therefore characterized by
 an irrep of the molecule and by a few (or only one) generating FOs.
 The SFOs constitute a symmetry-adapted basis for the Fock matrix. The MO eigenvector coefficients in
 this basis provide a direct interpretation of the MOs in terms of Frontier Orbital Theory.

 The SFOs are combined with auxiliary Core Functions (CFs) to ensure orthogonalization on the (frozen)
 Core Orbitals (COs). The Core-orthogonalized SFOs (CSFOs) constitute the true Fock basis.

 The FOs, and hence also the (C)SFOs are combinations of the elementary basis functions (BAS). The basis
 functions that participate in the description of the SFOs depend on the irrep. The indices of the
 involved functions are printed below for each irrep.
 (The complete list of primitive basis functions is printed in another section)

 Total nr. of (C)SFOs (summation over all irreps) :   218

 NOTE: a (C)SFO that is defined as a combination of more than one FO is usually NOT normalized.



                                       === A ===
 Nr. of SFOs :  218
 Cartesian basis functions that participate in this irrep (total number =   246) :
      1     2     3     4     5     6     9    12     7    10
     13     8    11    14    15    16    17    18    19    20
     21    22    23    24    25    26    27    28    29    30
     31    32    33    34    35    36    39    42    37    40
     43    38    41    44    45    46    47    48    49    50
     51    52    53    54    55    56    57    58    59    60
     61    62    63    64    65    66    69    72    67    70
     73    68    71    74    75    76    77    78    79    80
     81    82    83    84    85    86    87    88    89    90
     91    92    93    94    95    96    97    98    99   100
    101   102   103   104   105   106   107   108   109   110
    111   112   113   114   115   116   117   118   119   120
    121   122   123   124   125   126   127   128   129   130
    131   132   133   134   135   136   137   138   139   140
    141   142   143   144   145   146   147   148   149   150
    151   152   153   154   155   156   157   158   159   160
    161   162   163   164   165   166   167   168   169   170
    171   172   173   174   175   176   177   178   179   180
    181   182   183   184   185   186   187   188   189   190
    191   192   195   198   193   196   199   194   197   200
    201   202   203   204   205   206   207   208   209   210
    211   212   213   214   215   216   217   218   219   220
    221   222   225   228   223   226   229   224   227   230
    231   232   233   234   235   236   237   238   239   240
    241   242   243   244   245   246

    SFO  (index         Fragment          Generating    Expansion in Fragment Orbitals
  indx  incl.CFs)   Occup   Orb.Energy   FragmentType  Coeff.   Orbital     on Fragment
 --------------------------------------------------------------------------------------
     1       1      2.000     -10.066 au  C             1.00      1 S               1
                        (    -273.921 eV)
     2       2      2.000      -0.501 au  C             1.00      2 S               1
                        (     -13.620 eV)
     3       3       --         0.373 au  C             1.00      3 S               1
                        (      10.158 eV)
     4       4       --         5.405 au  C             1.00      4 S               1
                        (     147.073 eV)
     5       5       --        49.848 au  C             1.00      5 S               1
                        (    1356.422 eV)
     6       6      0.667      -0.193 au  C             1.00      1 P:x             1
                        (      -5.239 eV)
     7       7       --         0.169 au  C             1.00      2 P:x             1
                        (       4.589 eV)
     8       8       --         2.013 au  C             1.00      3 P:x             1
                        (      54.789 eV)
     9       9      0.667      -0.193 au  C             1.00      1 P:y             1
                        (      -5.239 eV)
    10      10       --         0.169 au  C             1.00      2 P:y             1
                        (       4.589 eV)
    11      11       --         2.013 au  C             1.00      3 P:y             1
                        (      54.789 eV)
    12      12      0.667      -0.193 au  C             1.00      1 P:z             1
                        (      -5.239 eV)
    13      13       --         0.169 au  C             1.00      2 P:z             1
                        (       4.589 eV)
    14      14       --         2.013 au  C             1.00      3 P:z             1
                        (      54.789 eV)
    15      15       --         1.243 au  C             1.00      1 D:z2            1
                        (      33.824 eV)
    16      16       --         1.243 au  C             1.00      1 D:x2-y2         1
                        (      33.824 eV)
    17      17       --         1.243 au  C             1.00      1 D:xy            1
                        (      33.824 eV)
    18      18       --         1.243 au  C             1.00      1 D:xz            1
                        (      33.824 eV)
    19      19       --         1.243 au  C             1.00      1 D:yz            1
                        (      33.824 eV)
    20      20       --         4.016 au  C             1.00      1 F:z3            1
                        (     109.271 eV)
    21      21       --         4.016 au  C             1.00      1 F:z             1
                        (     109.271 eV)
    22      22       --         4.016 au  C             1.00      1 F:xyz           1
                        (     109.271 eV)
    23      23       --         4.016 au  C             1.00      1 F:z2x           1
                        (     109.271 eV)
    24      24       --         4.016 au  C             1.00      1 F:z2y           1
                        (     109.271 eV)
    25      25       --         4.016 au  C             1.00      1 F:x             1
                        (     109.271 eV)
    26      26       --         4.016 au  C             1.00      1 F:y             1
                        (     109.271 eV)
    27      27      2.000     -10.066 au  C             1.00      1 S               2
                        (    -273.921 eV)
    28      28      2.000      -0.501 au  C             1.00      2 S               2
                        (     -13.620 eV)
    29      29       --         0.373 au  C             1.00      3 S               2
                        (      10.158 eV)
    30      30       --         5.405 au  C             1.00      4 S               2
                        (     147.073 eV)
    31      31       --        49.848 au  C             1.00      5 S               2
                        (    1356.422 eV)
    32      32      0.667      -0.193 au  C             1.00      1 P:x             2
                        (      -5.239 eV)
    33      33       --         0.169 au  C             1.00      2 P:x             2
                        (       4.589 eV)
    34      34       --         2.013 au  C             1.00      3 P:x             2
                        (      54.789 eV)
    35      35      0.667      -0.193 au  C             1.00      1 P:y             2
                        (      -5.239 eV)
    36      36       --         0.169 au  C             1.00      2 P:y             2
                        (       4.589 eV)
    37      37       --         2.013 au  C             1.00      3 P:y             2
                        (      54.789 eV)
    38      38      0.667      -0.193 au  C             1.00      1 P:z             2
                        (      -5.239 eV)
    39      39       --         0.169 au  C             1.00      2 P:z             2
                        (       4.589 eV)
    40      40       --         2.013 au  C             1.00      3 P:z             2
                        (      54.789 eV)
    41      41       --         1.243 au  C             1.00      1 D:z2            2
                        (      33.824 eV)
    42      42       --         1.243 au  C             1.00      1 D:x2-y2         2
                        (      33.824 eV)
    43      43       --         1.243 au  C             1.00      1 D:xy            2
                        (      33.824 eV)
    44      44       --         1.243 au  C             1.00      1 D:xz            2
                        (      33.824 eV)
    45      45       --         1.243 au  C             1.00      1 D:yz            2
                        (      33.824 eV)
    46      46       --         4.016 au  C             1.00      1 F:z3            2
                        (     109.271 eV)
    47      47       --         4.016 au  C             1.00      1 F:z             2
                        (     109.271 eV)
    48      48       --         4.016 au  C             1.00      1 F:xyz           2
                        (     109.271 eV)
    49      49       --         4.016 au  C             1.00      1 F:z2x           2
                        (     109.271 eV)
    50      50       --         4.016 au  C             1.00      1 F:z2y           2
                        (     109.271 eV)
    51      51       --         4.016 au  C             1.00      1 F:x             2
                        (     109.271 eV)
    52      52       --         4.016 au  C             1.00      1 F:y             2
                        (     109.271 eV)
    53      53      2.000     -10.066 au  C             1.00      1 S               3
                        (    -273.921 eV)
    54      54      2.000      -0.501 au  C             1.00      2 S               3
                        (     -13.620 eV)
    55      55       --         0.373 au  C             1.00      3 S               3
                        (      10.158 eV)
    56      56       --         5.405 au  C             1.00      4 S               3
                        (     147.073 eV)
    57      57       --        49.848 au  C             1.00      5 S               3
                        (    1356.422 eV)
    58      58      0.667      -0.193 au  C             1.00      1 P:x             3
                        (      -5.239 eV)
    59      59       --         0.169 au  C             1.00      2 P:x             3
                        (       4.589 eV)
    60      60       --         2.013 au  C             1.00      3 P:x             3
                        (      54.789 eV)
    61      61      0.667      -0.193 au  C             1.00      1 P:y             3
                        (      -5.239 eV)
    62      62       --         0.169 au  C             1.00      2 P:y             3
                        (       4.589 eV)
    63      63       --         2.013 au  C             1.00      3 P:y             3
                        (      54.789 eV)
    64      64      0.667      -0.193 au  C             1.00      1 P:z             3
                        (      -5.239 eV)
    65      65       --         0.169 au  C             1.00      2 P:z             3
                        (       4.589 eV)
    66      66       --         2.013 au  C             1.00      3 P:z             3
                        (      54.789 eV)
    67      67       --         1.243 au  C             1.00      1 D:z2            3
                        (      33.824 eV)
    68      68       --         1.243 au  C             1.00      1 D:x2-y2         3
                        (      33.824 eV)
    69      69       --         1.243 au  C             1.00      1 D:xy            3
                        (      33.824 eV)
    70      70       --         1.243 au  C             1.00      1 D:xz            3
                        (      33.824 eV)
    71      71       --         1.243 au  C             1.00      1 D:yz            3
                        (      33.824 eV)
    72      72       --         4.016 au  C             1.00      1 F:z3            3
                        (     109.271 eV)
    73      73       --         4.016 au  C             1.00      1 F:z             3
                        (     109.271 eV)
    74      74       --         4.016 au  C             1.00      1 F:xyz           3
                        (     109.271 eV)
    75      75       --         4.016 au  C             1.00      1 F:z2x           3
                        (     109.271 eV)
    76      76       --         4.016 au  C             1.00      1 F:z2y           3
                        (     109.271 eV)
    77      77       --         4.016 au  C             1.00      1 F:x             3
                        (     109.271 eV)
    78      78       --         4.016 au  C             1.00      1 F:y             3
                        (     109.271 eV)
    79      79      1.000      -0.240 au  H             1.00      1 S               4
                        (      -6.532 eV)
    80      80       --         0.088 au  H             1.00      2 S               4
                        (       2.394 eV)
    81      81       --         1.502 au  H             1.00      3 S               4
                        (      40.869 eV)
    82      82       --         0.406 au  H             1.00      1 P:x             4
                        (      11.051 eV)
    83      83       --         0.406 au  H             1.00      1 P:y             4
                        (      11.051 eV)
    84      84       --         0.406 au  H             1.00      1 P:z             4
                        (      11.051 eV)
    85      85       --         2.569 au  H             1.00      1 D:z2            4
                        (      69.917 eV)
    86      86       --         2.569 au  H             1.00      1 D:x2-y2         4
                        (      69.917 eV)
    87      87       --         2.569 au  H             1.00      1 D:xy            4
                        (      69.917 eV)
    88      88       --         2.569 au  H             1.00      1 D:xz            4
                        (      69.917 eV)
    89      89       --         2.569 au  H             1.00      1 D:yz            4
                        (      69.917 eV)
    90      90      1.000      -0.240 au  H             1.00      1 S               5
                        (      -6.532 eV)
    91      91       --         0.088 au  H             1.00      2 S               5
                        (       2.394 eV)
    92      92       --         1.502 au  H             1.00      3 S               5
                        (      40.869 eV)
    93      93       --         0.406 au  H             1.00      1 P:x             5
                        (      11.051 eV)
    94      94       --         0.406 au  H             1.00      1 P:y             5
                        (      11.051 eV)
    95      95       --         0.406 au  H             1.00      1 P:z             5
                        (      11.051 eV)
    96      96       --         2.569 au  H             1.00      1 D:z2            5
                        (      69.917 eV)
    97      97       --         2.569 au  H             1.00      1 D:x2-y2         5
                        (      69.917 eV)
    98      98       --         2.569 au  H             1.00      1 D:xy            5
                        (      69.917 eV)
    99      99       --         2.569 au  H             1.00      1 D:xz            5
                        (      69.917 eV)
   100     100       --         2.569 au  H             1.00      1 D:yz            5
                        (      69.917 eV)
   101     101      1.000      -0.240 au  H             1.00      1 S               6
                        (      -6.532 eV)
   102     102       --         0.088 au  H             1.00      2 S               6
                        (       2.394 eV)
   103     103       --         1.502 au  H             1.00      3 S               6
                        (      40.869 eV)
   104     104       --         0.406 au  H             1.00      1 P:x             6
                        (      11.051 eV)
   105     105       --         0.406 au  H             1.00      1 P:y             6
                        (      11.051 eV)
   106     106       --         0.406 au  H             1.00      1 P:z             6
                        (      11.051 eV)
   107     107       --         2.569 au  H             1.00      1 D:z2            6
                        (      69.917 eV)
   108     108       --         2.569 au  H             1.00      1 D:x2-y2         6
                        (      69.917 eV)
   109     109       --         2.569 au  H             1.00      1 D:xy            6
                        (      69.917 eV)
   110     110       --         2.569 au  H             1.00      1 D:xz            6
                        (      69.917 eV)
   111     111       --         2.569 au  H             1.00      1 D:yz            6
                        (      69.917 eV)
   112     112      1.000      -0.240 au  H             1.00      1 S               7
                        (      -6.532 eV)
   113     113       --         0.088 au  H             1.00      2 S               7
                        (       2.394 eV)
   114     114       --         1.502 au  H             1.00      3 S               7
                        (      40.869 eV)
   115     115       --         0.406 au  H             1.00      1 P:x             7
                        (      11.051 eV)
   116     116       --         0.406 au  H             1.00      1 P:y             7
                        (      11.051 eV)
   117     117       --         0.406 au  H             1.00      1 P:z             7
                        (      11.051 eV)
   118     118       --         2.569 au  H             1.00      1 D:z2            7
                        (      69.917 eV)
   119     119       --         2.569 au  H             1.00      1 D:x2-y2         7
                        (      69.917 eV)
   120     120       --         2.569 au  H             1.00      1 D:xy            7
                        (      69.917 eV)
   121     121       --         2.569 au  H             1.00      1 D:xz            7
                        (      69.917 eV)
   122     122       --         2.569 au  H             1.00      1 D:yz            7
                        (      69.917 eV)
   123     123      1.000      -0.240 au  H             1.00      1 S               8
                        (      -6.532 eV)
   124     124       --         0.088 au  H             1.00      2 S               8
                        (       2.394 eV)
   125     125       --         1.502 au  H             1.00      3 S               8
                        (      40.869 eV)
   126     126       --         0.406 au  H             1.00      1 P:x             8
                        (      11.051 eV)
   127     127       --         0.406 au  H             1.00      1 P:y             8
                        (      11.051 eV)
   128     128       --         0.406 au  H             1.00      1 P:z             8
                        (      11.051 eV)
   129     129       --         2.569 au  H             1.00      1 D:z2            8
                        (      69.917 eV)
   130     130       --         2.569 au  H             1.00      1 D:x2-y2         8
                        (      69.917 eV)
   131     131       --         2.569 au  H             1.00      1 D:xy            8
                        (      69.917 eV)
   132     132       --         2.569 au  H             1.00      1 D:xz            8
                        (      69.917 eV)
   133     133       --         2.569 au  H             1.00      1 D:yz            8
                        (      69.917 eV)
   134     134      1.000      -0.240 au  H             1.00      1 S               9
                        (      -6.532 eV)
   135     135       --         0.088 au  H             1.00      2 S               9
                        (       2.394 eV)
   136     136       --         1.502 au  H             1.00      3 S               9
                        (      40.869 eV)
   137     137       --         0.406 au  H             1.00      1 P:x             9
                        (      11.051 eV)
   138     138       --         0.406 au  H             1.00      1 P:y             9
                        (      11.051 eV)
   139     139       --         0.406 au  H             1.00      1 P:z             9
                        (      11.051 eV)
   140     140       --         2.569 au  H             1.00      1 D:z2            9
                        (      69.917 eV)
   141     141       --         2.569 au  H             1.00      1 D:x2-y2         9
                        (      69.917 eV)
   142     142       --         2.569 au  H             1.00      1 D:xy            9
                        (      69.917 eV)
   143     143       --         2.569 au  H             1.00      1 D:xz            9
                        (      69.917 eV)
   144     144       --         2.569 au  H             1.00      1 D:yz            9
                        (      69.917 eV)
   145     145      1.000      -0.240 au  H             1.00      1 S              10
                        (      -6.532 eV)
   146     146       --         0.088 au  H             1.00      2 S              10
                        (       2.394 eV)
   147     147       --         1.502 au  H             1.00      3 S              10
                        (      40.869 eV)
   148     148       --         0.406 au  H             1.00      1 P:x            10
                        (      11.051 eV)
   149     149       --         0.406 au  H             1.00      1 P:y            10
                        (      11.051 eV)
   150     150       --         0.406 au  H             1.00      1 P:z            10
                        (      11.051 eV)
   151     151       --         2.569 au  H             1.00      1 D:z2           10
                        (      69.917 eV)
   152     152       --         2.569 au  H             1.00      1 D:x2-y2        10
                        (      69.917 eV)
   153     153       --         2.569 au  H             1.00      1 D:xy           10
                        (      69.917 eV)
   154     154       --         2.569 au  H             1.00      1 D:xz           10
                        (      69.917 eV)
   155     155       --         2.569 au  H             1.00      1 D:yz           10
                        (      69.917 eV)
   156     156      1.000      -0.240 au  H             1.00      1 S              11
                        (      -6.532 eV)
   157     157       --         0.088 au  H             1.00      2 S              11
                        (       2.394 eV)
   158     158       --         1.502 au  H             1.00      3 S              11
                        (      40.869 eV)
   159     159       --         0.406 au  H             1.00      1 P:x            11
                        (      11.051 eV)
   160     160       --         0.406 au  H             1.00      1 P:y            11
                        (      11.051 eV)
   161     161       --         0.406 au  H             1.00      1 P:z            11
                        (      11.051 eV)
   162     162       --         2.569 au  H             1.00      1 D:z2           11
                        (      69.917 eV)
   163     163       --         2.569 au  H             1.00      1 D:x2-y2        11
                        (      69.917 eV)
   164     164       --         2.569 au  H             1.00      1 D:xy           11
                        (      69.917 eV)
   165     165       --         2.569 au  H             1.00      1 D:xz           11
                        (      69.917 eV)
   166     166       --         2.569 au  H             1.00      1 D:yz           11
                        (      69.917 eV)
   167     167      2.000     -24.402 au  F             1.00      1 S              12
                        (    -664.014 eV)
   168     168      2.000      -1.095 au  F             1.00      2 S              12
                        (     -29.785 eV)
   169     169       --         0.023 au  F             1.00      3 S              12
                        (       0.624 eV)
   170     170       --         1.576 au  F             1.00      4 S              12
                        (      42.880 eV)
   171     171       --        47.803 au  F             1.00      5 S              12
                        (    1300.785 eV)
   172     172      1.667      -0.409 au  F             1.00      1 P:x            12
                        (     -11.127 eV)
   173     173       --         0.428 au  F             1.00      2 P:x            12
                        (      11.654 eV)
   174     174       --         4.556 au  F             1.00      3 P:x            12
                        (     123.977 eV)
   175     175      1.667      -0.409 au  F             1.00      1 P:y            12
                        (     -11.127 eV)
   176     176       --         0.428 au  F             1.00      2 P:y            12
                        (      11.654 eV)
   177     177       --         4.556 au  F             1.00      3 P:y            12
                        (     123.977 eV)
   178     178      1.667      -0.409 au  F             1.00      1 P:z            12
                        (     -11.127 eV)
   179     179       --         0.428 au  F             1.00      2 P:z            12
                        (      11.654 eV)
   180     180       --         4.556 au  F             1.00      3 P:z            12
                        (     123.977 eV)
   181     181       --         1.117 au  F             1.00      1 D:z2           12
                        (      30.390 eV)
   182     182       --         1.117 au  F             1.00      1 D:x2-y2        12
                        (      30.390 eV)
   183     183       --         1.117 au  F             1.00      1 D:xy           12
                        (      30.390 eV)
   184     184       --         1.117 au  F             1.00      1 D:xz           12
                        (      30.390 eV)
   185     185       --         1.117 au  F             1.00      1 D:yz           12
                        (      30.390 eV)
   186     186       --         3.416 au  F             1.00      1 F:z3           12
                        (      92.949 eV)
   187     187       --         3.416 au  F             1.00      1 F:z            12
                        (      92.949 eV)
   188     188       --         3.416 au  F             1.00      1 F:xyz          12
                        (      92.949 eV)
   189     189       --         3.416 au  F             1.00      1 F:z2x          12
                        (      92.949 eV)
   190     190       --         3.416 au  F             1.00      1 F:z2y          12
                        (      92.949 eV)
   191     191       --         3.416 au  F             1.00      1 F:x            12
                        (      92.949 eV)
   192     192       --         3.416 au  F             1.00      1 F:y            12
                        (      92.949 eV)
   193     193      2.000     -14.160 au  N             1.00      1 S              13
                        (    -385.319 eV)
   194     194      2.000      -0.678 au  N             1.00      2 S              13
                        (     -18.450 eV)
   195     195       --         0.517 au  N             1.00      3 S              13
                        (      14.073 eV)
   196     196       --         6.872 au  N             1.00      4 S              13
                        (     186.990 eV)
   197     197       --        63.432 au  N             1.00      5 S              13
                        (    1726.082 eV)
   198     198      1.000      -0.260 au  N             1.00      1 P:x            13
                        (      -7.062 eV)
   199     199       --         0.281 au  N             1.00      2 P:x            13
                        (       7.649 eV)
   200     200       --         3.275 au  N             1.00      3 P:x            13
                        (      89.105 eV)
   201     201      1.000      -0.260 au  N             1.00      1 P:y            13
                        (      -7.062 eV)
   202     202       --         0.281 au  N             1.00      2 P:y            13
                        (       7.649 eV)
   203     203       --         3.275 au  N             1.00      3 P:y            13
                        (      89.105 eV)
   204     204      1.000      -0.260 au  N             1.00      1 P:z            13
                        (      -7.062 eV)
   205     205       --         0.281 au  N             1.00      2 P:z            13
                        (       7.649 eV)
   206     206       --         3.275 au  N             1.00      3 P:z            13
                        (      89.105 eV)
   207     207       --         1.250 au  N             1.00      1 D:z2           13
                        (      34.005 eV)
   208     208       --         1.250 au  N             1.00      1 D:x2-y2        13
                        (      34.005 eV)
   209     209       --         1.250 au  N             1.00      1 D:xy           13
                        (      34.005 eV)
   210     210       --         1.250 au  N             1.00      1 D:xz           13
                        (      34.005 eV)
   211     211       --         1.250 au  N             1.00      1 D:yz           13
                        (      34.005 eV)
   212     212       --         4.013 au  N             1.00      1 F:z3           13
                        (     109.190 eV)
   213     213       --         4.013 au  N             1.00      1 F:z            13
                        (     109.190 eV)
   214     214       --         4.013 au  N             1.00      1 F:xyz          13
                        (     109.190 eV)
   215     215       --         4.013 au  N             1.00      1 F:z2x          13
                        (     109.190 eV)
   216     216       --         4.013 au  N             1.00      1 F:z2y          13
                        (     109.190 eV)
   217     217       --         4.013 au  N             1.00      1 F:x            13
                        (     109.190 eV)
   218     218       --         4.013 au  N             1.00      1 F:y            13
                        (     109.190 eV)



 ================================
 (Slater-type)  F U N C T I O N S  ***  (Basis and Fit)  ***
 ================================
  

 Atom Type    1  (C)
 ==============

 Valence Basis Sets:  10
 -----------------------
   1 S    7.680000
   1 S    5.000000
   2 S    1.280000
   2 S    2.100000
   2 S    4.600000
   2 P    0.820000
   2 P    1.480000
   2 P    2.940000
   3 D    2.200000
   4 F    3.300000

 Atom Type    2  (H)
 ==============

 Valence Basis Sets:   5
 -----------------------
   1 S    0.690000
   1 S    0.920000
   1 S    1.580000
   2 P    1.250000
   3 D    2.500000

 Atom Type    3  (F)
 ==============

 Valence Basis Sets:  10
 -----------------------
   1 S   10.880000
   1 S    7.700000
   2 S    3.240000
   2 S    1.940000
   2 S    0.740000
   2 P    4.540000
   2 P    2.300000
   2 P    1.240000
   3 D    2.000000
   4 F    3.000000

 Atom Type    4  (N)
 ==============

 Valence Basis Sets:  10
 -----------------------
   1 S    8.740000
   1 S    5.900000
   2 S    5.150000
   2 S    2.500000
   2 S    1.500000
   2 P    3.680000
   2 P    1.880000
   2 P    1.000000
   3 D    2.200000
[...]
                                    6.55%     1 S              -6.532  1.00     7 H
                                    5.70%     1 P:y            -5.239  0.67     1 C
                                    5.16%     1 P:x           -11.127  1.67    12 F
                                   -4.69%     2 P:y            11.654  0.00    12 F
                                    4.15%     2 P:y             4.589  0.00     1 C
                                    3.14%     1 S              -6.532  1.00    11 H
                                    3.12%     2 P:z             4.589  0.00     3 C
                                   -2.54%     2 S               2.394  0.00     7 H
                                   -2.50%     3 S              10.158  0.00     2 C
                                   -2.42%     4 S              42.880  0.00    12 F
                                   -2.42%     2 P:x             4.589  0.00     2 C
                                   -1.89%     2 S               2.394  0.00    11 H
                                    1.76%     2 S             -13.620  2.00     1 C
                                    1.72%     1 S              -6.532  1.00    10 H
                                    1.52%     1 P:y           -11.127  1.67    12 F
                                    1.31%     1 P:x            -5.239  0.67     2 C
                                    1.24%     2 S             -13.620  2.00     2 C
       4.041  0.00    33 A         28.73%     1 P:y            -5.239  0.67     2 C
                                   18.56%     1 P:z            -5.239  0.67     2 C
                                   15.27%     1 P:y            -5.239  0.67     1 C
                                  -14.26%     2 P:y             4.589  0.00     2 C
                                   12.92%     2 P:z             4.589  0.00     2 C
                                    7.21%     2 P:z             4.589  0.00     3 C
                                    7.19%     1 P:y            -5.239  0.67     3 C
                                   -6.41%     2 P:x             7.649  0.00    13 N
                                   -6.07%     3 S              14.073  0.00    13 N
                                    5.55%     1 P:z            -5.239  0.67     3 C
                                    4.85%     1 P:x            -5.239  0.67     1 C
                                    4.15%     2 S             -18.450  2.00    13 N
                                    3.88%     1 P:z            -7.062  1.00    13 N
                                    3.56%     1 P:y            -7.062  1.00    13 N
                                    3.51%     1 S              -6.532  1.00     9 H
                                    3.33%     2 P:x             4.589  0.00     3 C
                                   -2.98%     2 S               2.394  0.00    10 H
                                    2.92%     2 P:z             4.589  0.00     1 C
                                    2.72%     1 S              -6.532  1.00     8 H
                                    2.52%     2 S               2.394  0.00    11 H
                                    2.42%     1 S              -6.532  1.00     7 H
                                   -2.37%     2 S               2.394  0.00     8 H
                                   -2.28%     2 P:y             7.649  0.00    13 N
                                    2.05%     1 S              -6.532  1.00    10 H
                                    1.77%     2 P:z             7.649  0.00    13 N
                                   -1.65%     2 P:x             4.589  0.00     1 C
                                   -1.54%     1 S              -6.532  1.00    11 H
                                    1.37%     1 P:y            11.051  0.00     5 H
                                    1.29%     1 P:x            -5.239  0.67     2 C
                                    1.18%     1 P:x            -5.239  0.67     3 C
                                    1.16%     1 S              -6.532  1.00     6 H
                                   -1.03%     2 P:y             4.589  0.00     3 C
                                    1.02%     3 S              40.869  0.00     8 H
                                    1.00%     1 P:x           -11.127  1.67    12 F
       4.484  0.00    34 A         20.08%     1 P:y            -5.239  0.67     2 C
                                   19.89%     1 P:z            -5.239  0.67     3 C
                                   14.96%     2 P:x             4.589  0.00     3 C
                                   12.02%     1 P:y            -5.239  0.67     1 C
                                   11.54%     1 P:z            -5.239  0.67     2 C
                                   11.11%     1 S              -6.532  1.00     8 H
                                   -8.30%     2 S               2.394  0.00     8 H
                                    7.54%     1 P:x            -5.239  0.67     3 C
                                   -7.12%     2 P:y             4.589  0.00     1 C
                                    5.83%     2 S               2.394  0.00     7 H
                                   -3.65%     2 P:y             4.589  0.00     2 C
                                    3.40%     1 P:z            -5.239  0.67     1 C
                                    3.40%     1 S              -6.532  1.00     7 H
                                   -2.91%     3 S              40.869  0.00     8 H
                                    2.84%     1 S              -6.532  1.00     4 H
                                    2.71%     1 S              -6.532  1.00     6 H
                                    2.48%     1 S              -6.532  1.00     9 H
                                   -2.39%     2 P:z             4.589  0.00     2 C
                                   -2.27%     2 S               2.394  0.00     6 H
                                    2.02%     2 P:z             4.589  0.00     1 C
                                   -1.53%     2 P:x             4.589  0.00     2 C
                                   -1.44%     3 S              40.869  0.00     7 H
                                    1.39%     1 P:y            -5.239  0.67     3 C
                                   -1.37%     2 S               2.394  0.00     9 H
                                    1.35%     1 P:x            11.051  0.00     9 H
                                    1.32%     1 P:z            11.051  0.00     4 H
                                   -1.27%     1 P:x            -5.239  0.67     2 C
                                    1.27%     2 P:z             7.649  0.00    13 N
                                    1.26%     1 P:x            -5.239  0.67     1 C
                                   -1.23%     3 S              10.158  0.00     1 C
                                    1.05%     1 P:y            -7.062  1.00    13 N
                                    1.01%     1 P:z            11.051  0.00    11 H
       4.826  0.00    35 A         39.92%     1 P:z            -5.239  0.67     2 C
                                   16.41%     1 P:x            -5.239  0.67     3 C
                                  -15.43%     2 P:z             4.589  0.00     2 C
                                   14.73%     1 S              -6.532  1.00     7 H
                                   14.30%     1 P:z            -5.239  0.67     3 C
                                  -10.36%     2 S               2.394  0.00     7 H
                                    8.23%     2 P:y             4.589  0.00     1 C
                                    5.74%     2 S               2.394  0.00     5 H
                                    5.22%     1 P:z            -7.062  1.00    13 N
                                    4.48%     2 P:x             4.589  0.00     3 C
                                    3.82%     2 S             -18.450  2.00    13 N
                                   -3.70%     3 S              14.073  0.00    13 N
                                   -3.54%     2 P:z             7.649  0.00    13 N
                                   -3.54%     2 P:z             4.589  0.00     1 C
                                    3.34%     2 S               2.394  0.00    11 H
                                    3.22%     2 P:x             4.589  0.00     2 C
                                    2.82%     2 S               2.394  0.00     9 H
                                    2.59%     2 S               2.394  0.00    10 H
                                    2.53%     1 P:y            -7.062  1.00    13 N
                                    2.36%     2 P:z             4.589  0.00     3 C
                                    2.15%     1 P:x            -5.239  0.67     2 C
                                   -2.04%     3 S              40.869  0.00     7 H
                                    1.90%     1 S              -6.532  1.00     8 H
                                    1.84%     2 S               2.394  0.00     6 H
                                    1.73%     1 P:y            11.051  0.00     6 H
                                    1.61%     1 P:x            -7.062  1.00    13 N
                                   -1.51%     1 P:z            -5.239  0.67     1 C
                                   -1.47%     1 S              -6.532  1.00    10 H
                                    1.32%     1 P:z            11.051  0.00     7 H
                                   -1.30%     2 P:x             7.649  0.00    13 N
                                   -1.29%     3 P:z            54.789  0.00     2 C
                                   -1.28%     2 P:y             4.589  0.00     3 C
                                    1.23%     3 S               0.624  0.00    12 F
                                    1.19%     1 P:x            11.051  0.00     9 H
                                    1.14%     1 P:y            -5.239  0.67     1 C
                                    1.01%     1 P:x            11.051  0.00     4 H

 Energy gradients wrt nuclear displacements
 ==========================================

     Atom      Cartesian (a.u./angstrom)
                 X         Y         Z
 ----------------------------------------
     1 C     0.000240  0.000065 -0.000078
     2 H    -0.000044  0.000305  0.000009
     3 F     0.000355 -0.000200 -0.000088
     4 C    -0.000050  0.000080  0.000058
     5 H     0.000356  0.000170 -0.000068
     6 H     0.000368  0.000113 -0.000102
     7 C    -0.000126 -0.000088  0.000013
     8 H    -0.000107 -0.000288  0.000028
     9 H    -0.000060 -0.000009  0.000007
    10 H    -0.000356 -0.000046  0.000087
    11 N    -0.000156  0.000036  0.000014
    12 H    -0.000333  0.000035  0.000091
    13 H    -0.000089 -0.000172  0.000030
 ----------------------------------------



 =======================================================================
 Electrostatic potential at the Nuclei due to electrons and other nuclei
 =======================================================================
  
         Atom                  Potential
         ----                  ---------
     1)   C                  14.71688296
     2)   H                   1.11003509
     3)   F                  26.66992648
     4)   C                  14.74515235
     5)   H                   1.10751360
     6)   H                   1.10269486
     7)   C                  14.79380857
     8)   H                   1.11925870
     9)   H                   1.11517971
    10)   H                   1.11620662
    11)   N                  18.43348328
    12)   H                   1.06000170
    13)   H                   1.06231800
 Mulliken charges used for AMS results%charges...


    =====================
     CALCULATION RESULTS
    =====================

Energy (hartree)            -2.44027998

Gradients (hartree/bohr)
  Index   Atom            d/dx            d/dy            d/dz
      1      C    0.0001268921    0.0000343659   -0.0000412171
      2      H   -0.0000233194    0.0001614079    0.0000047589
      3      F    0.0001880443   -0.0001060123   -0.0000463448
      4      C   -0.0000264399    0.0000422240    0.0000307976
      5      H    0.0001885391    0.0000900338   -0.0000360726
      6      H    0.0001949094    0.0000597585   -0.0000541131
      7      C   -0.0000667081   -0.0000465575    0.0000068141
      8      H   -0.0000563792   -0.0001521787    0.0000146708
      9      H   -0.0000316093   -0.0000049068    0.0000034928
     10      H   -0.0001882248   -0.0000246028    0.0000457994
     11      N   -0.0000824583    0.0000189499    0.0000073510
     12      H   -0.0001761286    0.0000183810    0.0000481383
     13      H   -0.0000471173   -0.0000908630    0.0000159246


--------------
Atomic charges
--------------
  Index   Atom    Charge
      1      C    0.9209
      2      H   -0.1675
      3      F   -0.4665
      4      C    0.3176
      5      H   -0.2268
      6      H   -0.2386
      7      C    0.6621
      8      H   -0.1873
      9      H   -0.2166
     10      H   -0.2334
     11      N   -0.0827
     12      H   -0.0538
     13      H   -0.0273


Dipole moment vector    (Debye):     1.21329204    1.20320410    0.93145679
              magnitude (Debye):     1.94612164


-----------------------
Molecular orbitals info
-----------------------
n orbitals:              218
n spin:                    1

Note: only printing virtual orbitals with
      energy smaller than HOMO + 100. eV

HOMO (eV):              -5.6417
LUMO (eV):              -0.4534
HOMO-LUMO gap (eV):      5.1883

   Index   Energy (eV)    Occupation
     140       93.5545         0.000       
     139       92.7733         0.000       
     138       92.2201         0.000       
     137       91.8250         0.000       
     136       89.8564         0.000       
     135       88.8542         0.000       
     134       85.0112         0.000       
     133       84.5660         0.000       
     132       84.1287         0.000       
     131       82.8126         0.000       
     130       82.2702         0.000       
     129       81.2214         0.000       
     128       80.2170         0.000       
     127       79.6611         0.000       
     126       79.2920         0.000       
     125       79.1312         0.000       
     124       78.4380         0.000       
     123       77.8567         0.000       
     122       76.4447         0.000       
     121       76.1509         0.000       
     120       75.0968         0.000       
     119       74.4890         0.000       
     118       73.4493         0.000       
     117       70.4169         0.000       
     116       70.2845         0.000       
     115       69.4551         0.000       
     114       67.7588         0.000       
     113       65.6293         0.000       
     112       65.3570         0.000       
     111       64.9917         0.000       
     110       63.6206         0.000       
     109       61.7905         0.000       
     108       60.5589         0.000       
     107       59.5496         0.000       
     106       58.4870         0.000       
     105       58.0687         0.000       
     104       57.2086         0.000       
     103       56.1992         0.000       
     102       55.2986         0.000       
     101       53.9510         0.000       
     100       52.3270         0.000       
      99       51.8208         0.000       
      98       51.3179         0.000       
      97       50.4758         0.000       
      96       49.3734         0.000       
      95       48.8564         0.000       
      94       47.7269         0.000       
      93       46.6050         0.000       
      92       45.7119         0.000       
      91       44.7799         0.000       
      90       43.5253         0.000       
      89       41.7916         0.000       
      88       39.9477         0.000       
      87       39.6151         0.000       
      86       38.6323         0.000       
      85       37.8458         0.000       
      84       37.1610         0.000       
      83       36.6899         0.000       
      82       35.4064         0.000       
      81       34.6234         0.000       
      80       34.4905         0.000       
      79       33.9162         0.000       
      78       32.9624         0.000       
      77       32.7706         0.000       
      76       32.4389         0.000       
      75       31.7630         0.000       
      74       31.4255         0.000       
      73       30.5807         0.000       
      72       30.1392         0.000       
      71       29.4425         0.000       
      70       28.9097         0.000       
      69       28.2714         0.000       
      68       27.7296         0.000       
      67       27.5075         0.000       
      66       25.9953         0.000       
      65       25.6891         0.000       
      64       23.6507         0.000       
      63       23.3736         0.000       
      62       22.0791         0.000       
      61       21.7670         0.000       
      60       21.3103         0.000       
      59       20.0073         0.000       
      58       18.7449         0.000       
      57       17.6764         0.000       
      56       16.7998         0.000       
      55       16.2901         0.000       
      54       14.2199         0.000       
      53       13.4129         0.000       
      52       12.6745         0.000       
      51       12.4025         0.000       
      50       11.7155         0.000       
      49       11.1121         0.000       
      48       10.8442         0.000       
      47       10.7862         0.000       
      46       10.4828         0.000       
      45       10.1131         0.000       
      44        9.1976         0.000       
      43        8.9470         0.000       
      42        8.3975         0.000       
      41        7.7709         0.000       
      40        7.4081         0.000       
      39        6.8393         0.000       
      38        6.2763         0.000       
      37        5.9411         0.000       
      36        5.4455         0.000       
      35        4.8257         0.000       
      34        4.4837         0.000       
      33        4.0410         0.000       
      32        3.3939         0.000       
      31        3.1016         0.000       
      30        2.5648         0.000       
      29        2.0986         0.000       
      28        1.6023         0.000       
      27        1.3824         0.000       
      26        1.1414         0.000       
      25        0.7963         0.000       
      24        0.6352         0.000       
      23        0.1848         0.000       
      22       -0.4534         0.000 < LUMO
      21       -5.6417         2.000 < HOMO
      20       -7.8057         2.000       
      19       -7.9375         2.000       
      18       -8.6854         2.000       
      17       -9.3773         2.000       
      16       -9.8175         2.000       
      15      -10.2714         2.000       
      14      -10.4778         2.000       
      13      -11.6816         2.000       
      12      -11.8785         2.000       
      11      -12.5474         2.000       
      10      -14.4074         2.000       
       9      -16.9870         2.000       
       8      -18.5982         2.000       
       7      -22.0012         2.000       
       6      -29.2110         2.000       
       5     -269.7984         2.000       
       4     -271.0530         2.000       
       3     -271.8924         2.000       
       2     -381.1030         2.000       
       1     -660.8491         2.000       

AMS application finished. Exiting.
NORMAL TERMINATION
     Total cpu time:     391.99
  Total system time:       2.32
 Total elapsed time:     395.58
NORMAL TERMINATION
