srun: Job 662085 step creation temporarily disabled, retrying (Requested nodes are busy)
srun: Job 662085 step creation still disabled, retrying (Requested nodes are busy)
srun: Job 662085 step creation still disabled, retrying (Requested nodes are busy)
srun: Job 662085 step creation still disabled, retrying (Requested nodes are busy)
srun: Job 662085 step creation still disabled, retrying (Requested nodes are busy)
srun: Job 662085 step creation still disabled, retrying (Requested nodes are busy)
srun: Job 662085 step creation still disabled, retrying (Requested nodes are busy)
srun: Job 662085 step creation still disabled, retrying (Requested nodes are busy)
srun: Job 662085 step creation still disabled, retrying (Requested nodes are busy)
srun: Step created for StepId=662085.63

 *******************************************************************************
 *                                                                             *
 *  --------------------------------                                           *
 *   Amsterdam Modeling Suite (AMS)              2026.103                      *
 *  --------------------------------                                           *
 *                                               r260501 2026-05-01 873454b5   *
 *                                                                             *
 *                                                                             *
 *                              =================                              *
 *                              |               |                              *
 *                              |     A M S     |                              *
 *                              |               |                              *
 *                              =================                              *
 *                                                                             *
 *                                                                             *
 *   Online information and documentation:  https://www.scm.com/support/       *
 *   E-mail:  support@scm.com   info@scm.com                                   *
 *                                                                             *
 *   Scientific publications using AMS results must be properly referenced     *
 *   See the User Manuals (or the web site) for recommended citations          *
 *   The terms and conditions of the End User License Agreement apply to       *
 *   the use of AMS, https://www.scm.com/license-terms/                        *
 *                                                                             *
 **********************  x86_64_linux_intel / intelmpi  ************************
 
 Licensed to: Jong-June Jeon / University of Seoul 2026-06-02 13:44:15
 SCM User ID: u30731
  
 AMS 2026.103  RunTime: Jun03-2026 08:02:37  ShM Nodes: 1  Procs: 1

 AMS jobname: c2_fragB_ts
 AMS jobid  : 12531878

 Start   directory: /gpfs/home1/yeseo1ee/projects/eda-asm-prediction/ADF_800/adf_outputs/batch_000/dipolar_001111/
 Results directory: /gpfs/home1/yeseo1ee/projects/eda-asm-prediction/ADF_800/adf_outputs/batch_000/dipolar_001111/c2_fragB_ts.results/
 Scratch directory: /tmp/amstmp_c2_fragB_ts_kid0.12531878/

 RNG seed: -125577146 -2032964208 -400478396 -1296771817 1453161922 -1458513164 -1800579193 1118062332



                      ************************************************************************
                      *  ADF 2026.103  RunTime: Jun03-2026 08:02:37  ShM Nodes: 1  Procs: 1  *
                      ************************************************************************
  

       ****************************
       * SINGLE POINT CALCULATION *
       ****************************

--------
Geometry
--------
Formula: C10H14O
Atoms
  Index Symbol   x (angstrom)   y (angstrom)   z (angstrom)
      1      C     0.43671000     0.68373000    -0.36020000
      2      C     0.70873000    -0.50871000    -0.62988000
      3      C     1.55136000    -1.54988000    -1.23465000
      4      C     2.74604000    -0.90325000    -1.96748000
      5      C     3.50602000     0.11470000    -1.08992000
      6      C     3.33518000     1.59756000    -1.46622000
      7      C     1.93084000     2.14992000    -1.73873000
      8      C     0.89949000     2.08000000    -0.57750000
      9      C    -0.24203000     3.01972000    -0.95942000
     10      C    -0.14157000     4.43764000    -0.47927000
     11      O    -1.17677000     2.61735000    -1.63357000
     12      H     0.95975000    -2.18625000    -1.91247000
     13      H     1.93790000    -2.21404000    -0.44303000
     14      H     3.41810000    -1.71691000    -2.28231000
     15      H     2.38847000    -0.42261000    -2.89249000
     16      H     4.58573000    -0.10078000    -1.13337000
     17      H     3.22203000    -0.03459000    -0.03516000
     18      H     3.80830000     2.20985000    -0.67930000
     19      H     3.91686000     1.78727000    -2.38527000
     20      H     1.47504000     1.64903000    -2.60727000
     21      H     2.05135000     3.20839000    -2.02240000
     22      H     1.36702000     2.45840000     0.34675000
     23      H     0.87464000     4.83272000    -0.63062000
     24      H    -0.32437000     4.43904000     0.60908000
     25      H    -0.88492000     5.07220000    -0.97883000

Total System Charge              0.00000


----------------
ADF Engine Input
----------------
 
   Basis
     Type TZ2P
     Core None
   End
   XC
     GGA BLYP
     Dispersion GRIMME3 BJDAMP
   End
   Symmetry NOSYM
   NumericalQuality Normal
   Unrestricted No
   SCF
     Iterations 200
     Converge 1.0e-6
   End
   Save TAPE21
 

 Title: *** (NO TITLE) ***

 *** adf ***



 ===========================
 A T T A C H E D   F I L E S
 ===========================
  



 ===============================
 M O D E L   P A R A M E T E R S
 ===============================
  
 DENSITY FUNCTIONAL POTENTIAL (scf)
    LDA:                               Exchange only                           == Not Default ==
    Gradient Corrections:              Becke88 LYP                             == Not Default ==

 SPIN  (restricted / unrestr.)
    Molecule:                          Restricted                               
    Fragments:                         Restricted                               

 OTHER ASPECTS
    Relativistic Corrections:          scalar (ZORA,MAPA)                       

    Nuclear Charge Density Model:      Point Charge Nuclei                      
    Core Treatment:                    Frozen Orbital(s)                        

    Hyperfine or Zeeman Interaction:   ---                                      

 Settings for Grimme D3 dispersion correction

      damping                        BJ
      s6                          1.000
      s8                          2.700
      a1                          0.430
      a2                          4.236

 Other (technical) parameters

      alpha                      14.000
      version                         4
 


 Fragment File(s)
 ----------------
 C:
         file : /gpfs/home1/yeseo1ee/projects/eda-asm-prediction/ADF_800/adf_outputs/batch_000/dipolar_001111/c2_fragB_ts.results/t21.50BA88D5.C
         jobid: 0
         title: Carbon (TZ2P)
 O:
         file : /gpfs/home1/yeseo1ee/projects/eda-asm-prediction/ADF_800/adf_outputs/batch_000/dipolar_001111/c2_fragB_ts.results/t21.6E90ABAE.O
         jobid: 0
         title: Oxygen (TZ2P)
 H:
         file : /gpfs/home1/yeseo1ee/projects/eda-asm-prediction/ADF_800/adf_outputs/batch_000/dipolar_001111/c2_fragB_ts.results/t21.6F35CCAB.H
         jobid: 0
         title: Hydrogen (TZ2P)



 ===============
 G E O M E T R Y  ***  3D  Molecule  ***
 ===============
  

 ATOMS
 =====                            X Y Z                    CHARGE
                                (Angstrom)             Nucl     +Core       At.Mass
                       --------------------------    ----------------       -------
    1  C               0.4367    0.6837   -0.3602      6.00      6.00       12.0000
    2  C               0.7087   -0.5087   -0.6299      6.00      6.00       12.0000
    3  C               1.5514   -1.5499   -1.2347      6.00      6.00       12.0000
    4  C               2.7460   -0.9032   -1.9675      6.00      6.00       12.0000
    5  C               3.5060    0.1147   -1.0899      6.00      6.00       12.0000
    6  C               3.3352    1.5976   -1.4662      6.00      6.00       12.0000
    7  C               1.9308    2.1499   -1.7387      6.00      6.00       12.0000
    8  C               0.8995    2.0800   -0.5775      6.00      6.00       12.0000
    9  C              -0.2420    3.0197   -0.9594      6.00      6.00       12.0000
   10  C              -0.1416    4.4376   -0.4793      6.00      6.00       12.0000
   11  O              -1.1768    2.6173   -1.6336      8.00      8.00       15.9949
   12  H               0.9597   -2.1862   -1.9125      1.00      1.00        1.0078
   13  H               1.9379   -2.2140   -0.4430      1.00      1.00        1.0078
   14  H               3.4181   -1.7169   -2.2823      1.00      1.00        1.0078
   15  H               2.3885   -0.4226   -2.8925      1.00      1.00        1.0078
   16  H               4.5857   -0.1008   -1.1334      1.00      1.00        1.0078
   17  H               3.2220   -0.0346   -0.0352      1.00      1.00        1.0078
   18  H               3.8083    2.2098   -0.6793      1.00      1.00        1.0078
   19  H               3.9169    1.7873   -2.3853      1.00      1.00        1.0078
   20  H               1.4750    1.6490   -2.6073      1.00      1.00        1.0078
   21  H               2.0513    3.2084   -2.0224      1.00      1.00        1.0078
   22  H               1.3670    2.4584    0.3468      1.00      1.00        1.0078
   23  H               0.8746    4.8327   -0.6306      1.00      1.00        1.0078
   24  H              -0.3244    4.4390    0.6091      1.00      1.00        1.0078
   25  H              -0.8849    5.0722   -0.9788      1.00      1.00        1.0078


 FRAGMENTS
 =========                                     Atoms in this Fragment     Cart. coord.s (Angstrom)
                                               -------------------------------------------------------
    1  C                                                 1  C            0.4367    0.6837   -0.3602
    2  C                                                 2  C            0.7087   -0.5087   -0.6299
    3  C                                                 3  C            1.5514   -1.5499   -1.2347
    4  C                                                 4  C            2.7460   -0.9032   -1.9675
    5  C                                                 5  C            3.5060    0.1147   -1.0899
    6  C                                                 6  C            3.3352    1.5976   -1.4662
    7  C                                                 7  C            1.9308    2.1499   -1.7387
    8  C                                                 8  C            0.8995    2.0800   -0.5775
    9  C                                                 9  C           -0.2420    3.0197   -0.9594
   10  C                                                10  C           -0.1416    4.4376   -0.4793
   11  O                                                11  O           -1.1768    2.6173   -1.6336
   12  H                                                12  H            0.9597   -2.1862   -1.9125
   13  H                                                13  H            1.9379   -2.2140   -0.4430
   14  H                                                14  H            3.4181   -1.7169   -2.2823
   15  H                                                15  H            2.3885   -0.4226   -2.8925
   16  H                                                16  H            4.5857   -0.1008   -1.1334
   17  H                                                17  H            3.2220   -0.0346   -0.0352
   18  H                                                18  H            3.8083    2.2098   -0.6793
   19  H                                                19  H            3.9169    1.7873   -2.3853
   20  H                                                20  H            1.4750    1.6490   -2.6073
   21  H                                                21  H            2.0513    3.2084   -2.0224
   22  H                                                22  H            1.3670    2.4584    0.3468
   23  H                                                23  H            0.8746    4.8327   -0.6306
   24  H                                                24  H           -0.3244    4.4390    0.6091
   25  H                                                25  H           -0.8849    5.0722   -0.9788



 =====================================
 S Y M M E T R Y ,   E L E C T R O N S
 =====================================
  
 Symmetry: NOSYM

 Irreducible Representations, including subspecies
 -------------------------------------------------
 A


 Configuration of Valence Electrons
 ==================================
 ( determined in the SCF procedure )

 Total:   82

 Net Charge: 0 (Nuclei minus Electrons)

 Aufbau principle for MO occupations will be applied through SCF cycle no.     100
 Thereafter, the program will assign electrons to MOs that are spatially
 similar to the occupied MOs in a "reference" cycle ("KeepOrbitals").
 The reference cycle is always the PREVIOUS cycle: it will evolve with
 the SCF procedure.
 ***************************************************************************************************



                                      ****************************************
                                      *  B U I L D : (Fragments, Functions)  *
                                      ****************************************
  



 =======
 S F O s  ***  (Symmetrized Fragment Orbitals)  ***
 =======
  
 SFOs are linear combinations of (valence) Fragment Orbitals (FOs), such that the SFOs transform as the
 irreducible representations of the (molecular) symmetry group. Each SFO is therefore characterized by
 an irrep of the molecule and by a few (or only one) generating FOs.
 The SFOs constitute a symmetry-adapted basis for the Fock matrix. The MO eigenvector coefficients in
 this basis provide a direct interpretation of the MOs in terms of Frontier Orbital Theory.

 The SFOs are combined with auxiliary Core Functions (CFs) to ensure orthogonalization on the (frozen)
 Core Orbitals (COs). The Core-orthogonalized SFOs (CSFOs) constitute the true Fock basis.

 The FOs, and hence also the (C)SFOs are combinations of the elementary basis functions (BAS). The basis
 functions that participate in the description of the SFOs depend on the irrep. The indices of the
 involved functions are printed below for each irrep.
 (The complete list of primitive basis functions is printed in another section)

 Total nr. of (C)SFOs (summation over all irreps) :   440

 NOTE: a (C)SFO that is defined as a combination of more than one FO is usually NOT normalized.



                                       === A ===
 Nr. of SFOs :  440
 Cartesian basis functions that participate in this irrep (total number =   498) :
      1     2     3     4     5     6     9    12     7    10
     13     8    11    14    15    16    17    18    19    20
     21    22    23    24    25    26    27    28    29    30
     31    32    33    34    35    36    39    42    37    40
     43    38    41    44    45    46    47    48    49    50
     51    52    53    54    55    56    57    58    59    60
     61    62    63    64    65    66    69    72    67    70
     73    68    71    74    75    76    77    78    79    80
     81    82    83    84    85    86    87    88    89    90
     91    92    93    94    95    96    99   102    97   100
    103    98   101   104   105   106   107   108   109   110
    111   112   113   114   115   116   117   118   119   120
    121   122   123   124   125   126   129   132   127   130
    133   128   131   134   135   136   137   138   139   140
    141   142   143   144   145   146   147   148   149   150
    151   152   153   154   155   156   159   162   157   160
    163   158   161   164   165   166   167   168   169   170
    171   172   173   174   175   176   177   178   179   180
    181   182   183   184   185   186   189   192   187   190
    193   188   191   194   195   196   197   198   199   200
    201   202   203   204   205   206   207   208   209   210
    211   212   213   214   215   216   219   222   217   220
    223   218   221   224   225   226   227   228   229   230
    231   232   233   234   235   236   237   238   239   240
    241   242   243   244   245   246   249   252   247   250
    253   248   251   254   255   256   257   258   259   260
    261   262   263   264   265   266   267   268   269   270
    271   272   273   274   275   276   279   282   277   280
    283   278   281   284   285   286   287   288   289   290
    291   292   293   294   295   296   297   298   299   300
    301   302   303   304   305   306   309   312   307   310
    313   308   311   314   315   316   317   318   319   320
    321   322   323   324   325   326   327   328   329   330
    331   332   333   334   335   336   337   338   339   340
    341   342   343   344   345   346   347   348   349   350
    351   352   353   354   355   356   357   358   359   360
    361   362   363   364   365   366   367   368   369   370
    371   372   373   374   375   376   377   378   379   380
    381   382   383   384   385   386   387   388   389   390
    391   392   393   394   395   396   397   398   399   400
    401   402   403   404   405   406   407   408   409   410
    411   412   413   414   415   416   417   418   419   420
    421   422   423   424   425   426   427   428   429   430
    431   432   433   434   435   436   437   438   439   440
    441   442   443   444   445   446   447   448   449   450
    451   452   453   454   455   456   457   458   459   460
    461   462   463   464   465   466   467   468   469   470
    471   472   473   474   475   476   477   478   479   480
    481   482   483   484   485   486   487   488   489   490
    491   492   493   494   495   496   497   498

    SFO  (index         Fragment          Generating    Expansion in Fragment Orbitals
  indx  incl.CFs)   Occup   Orb.Energy   FragmentType  Coeff.   Orbital     on Fragment
 --------------------------------------------------------------------------------------
     1       1      2.000     -10.066 au  C             1.00      1 S               1
                        (    -273.921 eV)
     2       2      2.000      -0.501 au  C             1.00      2 S               1
                        (     -13.620 eV)
     3       3       --         0.373 au  C             1.00      3 S               1
                        (      10.158 eV)
     4       4       --         5.405 au  C             1.00      4 S               1
                        (     147.073 eV)
     5       5       --        49.848 au  C             1.00      5 S               1
                        (    1356.422 eV)
     6       6      0.667      -0.193 au  C             1.00      1 P:x             1
                        (      -5.239 eV)
     7       7       --         0.169 au  C             1.00      2 P:x             1
                        (       4.589 eV)
     8       8       --         2.013 au  C             1.00      3 P:x             1
                        (      54.789 eV)
     9       9      0.667      -0.193 au  C             1.00      1 P:y             1
                        (      -5.239 eV)
    10      10       --         0.169 au  C             1.00      2 P:y             1
                        (       4.589 eV)
    11      11       --         2.013 au  C             1.00      3 P:y             1
                        (      54.789 eV)
    12      12      0.667      -0.193 au  C             1.00      1 P:z             1
                        (      -5.239 eV)
    13      13       --         0.169 au  C             1.00      2 P:z             1
                        (       4.589 eV)
    14      14       --         2.013 au  C             1.00      3 P:z             1
                        (      54.789 eV)
    15      15       --         1.243 au  C             1.00      1 D:z2            1
                        (      33.824 eV)
    16      16       --         1.243 au  C             1.00      1 D:x2-y2         1
                        (      33.824 eV)
    17      17       --         1.243 au  C             1.00      1 D:xy            1
                        (      33.824 eV)
    18      18       --         1.243 au  C             1.00      1 D:xz            1
                        (      33.824 eV)
    19      19       --         1.243 au  C             1.00      1 D:yz            1
                        (      33.824 eV)
    20      20       --         4.016 au  C             1.00      1 F:z3            1
                        (     109.271 eV)
    21      21       --         4.016 au  C             1.00      1 F:z             1
                        (     109.271 eV)
    22      22       --         4.016 au  C             1.00      1 F:xyz           1
                        (     109.271 eV)
    23      23       --         4.016 au  C             1.00      1 F:z2x           1
                        (     109.271 eV)
    24      24       --         4.016 au  C             1.00      1 F:z2y           1
                        (     109.271 eV)
    25      25       --         4.016 au  C             1.00      1 F:x             1
                        (     109.271 eV)
    26      26       --         4.016 au  C             1.00      1 F:y             1
                        (     109.271 eV)
    27      27      2.000     -10.066 au  C             1.00      1 S               2
                        (    -273.921 eV)
    28      28      2.000      -0.501 au  C             1.00      2 S               2
                        (     -13.620 eV)
    29      29       --         0.373 au  C             1.00      3 S               2
                        (      10.158 eV)
    30      30       --         5.405 au  C             1.00      4 S               2
                        (     147.073 eV)
    31      31       --        49.848 au  C             1.00      5 S               2
                        (    1356.422 eV)
    32      32      0.667      -0.193 au  C             1.00      1 P:x             2
                        (      -5.239 eV)
    33      33       --         0.169 au  C             1.00      2 P:x             2
                        (       4.589 eV)
    34      34       --         2.013 au  C             1.00      3 P:x             2
                        (      54.789 eV)
    35      35      0.667      -0.193 au  C             1.00      1 P:y             2
                        (      -5.239 eV)
    36      36       --         0.169 au  C             1.00      2 P:y             2
                        (       4.589 eV)
    37      37       --         2.013 au  C             1.00      3 P:y             2
                        (      54.789 eV)
    38      38      0.667      -0.193 au  C             1.00      1 P:z             2
                        (      -5.239 eV)
    39      39       --         0.169 au  C             1.00      2 P:z             2
                        (       4.589 eV)
    40      40       --         2.013 au  C             1.00      3 P:z             2
                        (      54.789 eV)
    41      41       --         1.243 au  C             1.00      1 D:z2            2
                        (      33.824 eV)
    42      42       --         1.243 au  C             1.00      1 D:x2-y2         2
                        (      33.824 eV)
    43      43       --         1.243 au  C             1.00      1 D:xy            2
                        (      33.824 eV)
    44      44       --         1.243 au  C             1.00      1 D:xz            2
                        (      33.824 eV)
    45      45       --         1.243 au  C             1.00      1 D:yz            2
                        (      33.824 eV)
    46      46       --         4.016 au  C             1.00      1 F:z3            2
                        (     109.271 eV)
    47      47       --         4.016 au  C             1.00      1 F:z             2
                        (     109.271 eV)
    48      48       --         4.016 au  C             1.00      1 F:xyz           2
                        (     109.271 eV)
    49      49       --         4.016 au  C             1.00      1 F:z2x           2
                        (     109.271 eV)
    50      50       --         4.016 au  C             1.00      1 F:z2y           2
                        (     109.271 eV)
    51      51       --         4.016 au  C             1.00      1 F:x             2
                        (     109.271 eV)
    52      52       --         4.016 au  C             1.00      1 F:y             2
                        (     109.271 eV)
    53      53      2.000     -10.066 au  C             1.00      1 S               3
                        (    -273.921 eV)
    54      54      2.000      -0.501 au  C             1.00      2 S               3
                        (     -13.620 eV)
    55      55       --         0.373 au  C             1.00      3 S               3
                        (      10.158 eV)
    56      56       --         5.405 au  C             1.00      4 S               3
                        (     147.073 eV)
    57      57       --        49.848 au  C             1.00      5 S               3
                        (    1356.422 eV)
    58      58      0.667      -0.193 au  C             1.00      1 P:x             3
                        (      -5.239 eV)
    59      59       --         0.169 au  C             1.00      2 P:x             3
                        (       4.589 eV)
    60      60       --         2.013 au  C             1.00      3 P:x             3
                        (      54.789 eV)
    61      61      0.667      -0.193 au  C             1.00      1 P:y             3
                        (      -5.239 eV)
    62      62       --         0.169 au  C             1.00      2 P:y             3
                        (       4.589 eV)
    63      63       --         2.013 au  C             1.00      3 P:y             3
                        (      54.789 eV)
    64      64      0.667      -0.193 au  C             1.00      1 P:z             3
                        (      -5.239 eV)
    65      65       --         0.169 au  C             1.00      2 P:z             3
                        (       4.589 eV)
    66      66       --         2.013 au  C             1.00      3 P:z             3
                        (      54.789 eV)
    67      67       --         1.243 au  C             1.00      1 D:z2            3
                        (      33.824 eV)
    68      68       --         1.243 au  C             1.00      1 D:x2-y2         3
                        (      33.824 eV)
    69      69       --         1.243 au  C             1.00      1 D:xy            3
                        (      33.824 eV)
    70      70       --         1.243 au  C             1.00      1 D:xz            3
                        (      33.824 eV)
    71      71       --         1.243 au  C             1.00      1 D:yz            3
                        (      33.824 eV)
    72      72       --         4.016 au  C             1.00      1 F:z3            3
                        (     109.271 eV)
    73      73       --         4.016 au  C             1.00      1 F:z             3
                        (     109.271 eV)
    74      74       --         4.016 au  C             1.00      1 F:xyz           3
                        (     109.271 eV)
    75      75       --         4.016 au  C             1.00      1 F:z2x           3
                        (     109.271 eV)
    76      76       --         4.016 au  C             1.00      1 F:z2y           3
                        (     109.271 eV)
    77      77       --         4.016 au  C             1.00      1 F:x             3
                        (     109.271 eV)
    78      78       --         4.016 au  C             1.00      1 F:y             3
                        (     109.271 eV)
    79      79      2.000     -10.066 au  C             1.00      1 S               4
                        (    -273.921 eV)
    80      80      2.000      -0.501 au  C             1.00      2 S               4
                        (     -13.620 eV)
    81      81       --         0.373 au  C             1.00      3 S               4
                        (      10.158 eV)
    82      82       --         5.405 au  C             1.00      4 S               4
                        (     147.073 eV)
    83      83       --        49.848 au  C             1.00      5 S               4
                        (    1356.422 eV)
    84      84      0.667      -0.193 au  C             1.00      1 P:x             4
                        (      -5.239 eV)
    85      85       --         0.169 au  C             1.00      2 P:x             4
                        (       4.589 eV)
    86      86       --         2.013 au  C             1.00      3 P:x             4
                        (      54.789 eV)
    87      87      0.667      -0.193 au  C             1.00      1 P:y             4
                        (      -5.239 eV)
    88      88       --         0.169 au  C             1.00      2 P:y             4
                        (       4.589 eV)
    89      89       --         2.013 au  C             1.00      3 P:y             4
                        (      54.789 eV)
    90      90      0.667      -0.193 au  C             1.00      1 P:z             4
                        (      -5.239 eV)
    91      91       --         0.169 au  C             1.00      2 P:z             4
                        (       4.589 eV)
    92      92       --         2.013 au  C             1.00      3 P:z             4
                        (      54.789 eV)
    93      93       --         1.243 au  C             1.00      1 D:z2            4
                        (      33.824 eV)
    94      94       --         1.243 au  C             1.00      1 D:x2-y2         4
                        (      33.824 eV)
    95      95       --         1.243 au  C             1.00      1 D:xy            4
                        (      33.824 eV)
    96      96       --         1.243 au  C             1.00      1 D:xz            4
                        (      33.824 eV)
    97      97       --         1.243 au  C             1.00      1 D:yz            4
                        (      33.824 eV)
    98      98       --         4.016 au  C             1.00      1 F:z3            4
                        (     109.271 eV)
    99      99       --         4.016 au  C             1.00      1 F:z             4
                        (     109.271 eV)
   100     100       --         4.016 au  C             1.00      1 F:xyz           4
                        (     109.271 eV)
   101     101       --         4.016 au  C             1.00      1 F:z2x           4
                        (     109.271 eV)
   102     102       --         4.016 au  C             1.00      1 F:z2y           4
                        (     109.271 eV)
   103     103       --         4.016 au  C             1.00      1 F:x             4
                        (     109.271 eV)
   104     104       --         4.016 au  C             1.00      1 F:y             4
                        (     109.271 eV)
   105     105      2.000     -10.066 au  C             1.00      1 S               5
                        (    -273.921 eV)
   106     106      2.000      -0.501 au  C             1.00      2 S               5
                        (     -13.620 eV)
   107     107       --         0.373 au  C             1.00      3 S               5
                        (      10.158 eV)
   108     108       --         5.405 au  C             1.00      4 S               5
                        (     147.073 eV)
   109     109       --        49.848 au  C             1.00      5 S               5
                        (    1356.422 eV)
   110     110      0.667      -0.193 au  C             1.00      1 P:x             5
                        (      -5.239 eV)
   111     111       --         0.169 au  C             1.00      2 P:x             5
                        (       4.589 eV)
   112     112       --         2.013 au  C             1.00      3 P:x             5
                        (      54.789 eV)
   113     113      0.667      -0.193 au  C             1.00      1 P:y             5
                        (      -5.239 eV)
   114     114       --         0.169 au  C             1.00      2 P:y             5
                        (       4.589 eV)
   115     115       --         2.013 au  C             1.00      3 P:y             5
                        (      54.789 eV)
   116     116      0.667      -0.193 au  C             1.00      1 P:z             5
                        (      -5.239 eV)
   117     117       --         0.169 au  C             1.00      2 P:z             5
                        (       4.589 eV)
   118     118       --         2.013 au  C             1.00      3 P:z             5
                        (      54.789 eV)
   119     119       --         1.243 au  C             1.00      1 D:z2            5
                        (      33.824 eV)
   120     120       --         1.243 au  C             1.00      1 D:x2-y2         5
                        (      33.824 eV)
   121     121       --         1.243 au  C             1.00      1 D:xy            5
                        (      33.824 eV)
   122     122       --         1.243 au  C             1.00      1 D:xz            5
                        (      33.824 eV)
   123     123       --         1.243 au  C             1.00      1 D:yz            5
                        (      33.824 eV)
   124     124       --         4.016 au  C             1.00      1 F:z3            5
                        (     109.271 eV)
   125     125       --         4.016 au  C             1.00      1 F:z             5
                        (     109.271 eV)
   126     126       --         4.016 au  C             1.00      1 F:xyz           5
                        (     109.271 eV)
   127     127       --         4.016 au  C             1.00      1 F:z2x           5
                        (     109.271 eV)
   128     128       --         4.016 au  C             1.00      1 F:z2y           5
                        (     109.271 eV)
   129     129       --         4.016 au  C             1.00      1 F:x             5
                        (     109.271 eV)
   130     130       --         4.016 au  C             1.00      1 F:y             5
                        (     109.271 eV)
   131     131      2.000     -10.066 au  C             1.00      1 S               6
                        (    -273.921 eV)
   132     132      2.000      -0.501 au  C             1.00      2 S               6
                        (     -13.620 eV)
   133     133       --         0.373 au  C             1.00      3 S               6
                        (      10.158 eV)
   134     134       --         5.405 au  C             1.00      4 S               6
                        (     147.073 eV)
   135     135       --        49.848 au  C             1.00      5 S               6
                        (    1356.422 eV)
   136     136      0.667      -0.193 au  C             1.00      1 P:x             6
                        (      -5.239 eV)
   137     137       --         0.169 au  C             1.00      2 P:x             6
                        (       4.589 eV)
   138     138       --         2.013 au  C             1.00      3 P:x             6
                        (      54.789 eV)
   139     139      0.667      -0.193 au  C             1.00      1 P:y             6
                        (      -5.239 eV)
   140     140       --         0.169 au  C             1.00      2 P:y             6
                        (       4.589 eV)
   141     141       --         2.013 au  C             1.00      3 P:y             6
                        (      54.789 eV)
   142     142      0.667      -0.193 au  C             1.00      1 P:z             6
                        (      -5.239 eV)
   143     143       --         0.169 au  C             1.00      2 P:z             6
                        (       4.589 eV)
   144     144       --         2.013 au  C             1.00      3 P:z             6
                        (      54.789 eV)
   145     145       --         1.243 au  C             1.00      1 D:z2            6
                        (      33.824 eV)
   146     146       --         1.243 au  C             1.00      1 D:x2-y2         6
                        (      33.824 eV)
   147     147       --         1.243 au  C             1.00      1 D:xy            6
                        (      33.824 eV)
   148     148       --         1.243 au  C             1.00      1 D:xz            6
                        (      33.824 eV)
   149     149       --         1.243 au  C             1.00      1 D:yz            6
                        (      33.824 eV)
   150     150       --         4.016 au  C             1.00      1 F:z3            6
                        (     109.271 eV)
   151     151       --         4.016 au  C             1.00      1 F:z             6
                        (     109.271 eV)
   152     152       --         4.016 au  C             1.00      1 F:xyz           6
                        (     109.271 eV)
   153     153       --         4.016 au  C             1.00      1 F:z2x           6
                        (     109.271 eV)
   154     154       --         4.016 au  C             1.00      1 F:z2y           6
                        (     109.271 eV)
   155     155       --         4.016 au  C             1.00      1 F:x             6
                        (     109.271 eV)
   156     156       --         4.016 au  C             1.00      1 F:y             6
                        (     109.271 eV)
   157     157      2.000     -10.066 au  C             1.00      1 S               7
                        (    -273.921 eV)
   158     158      2.000      -0.501 au  C             1.00      2 S               7
                        (     -13.620 eV)
   159     159       --         0.373 au  C             1.00      3 S               7
                        (      10.158 eV)
   160     160       --         5.405 au  C             1.00      4 S               7
                        (     147.073 eV)
   161     161       --        49.848 au  C             1.00      5 S               7
                        (    1356.422 eV)
   162     162      0.667      -0.193 au  C             1.00      1 P:x             7
                        (      -5.239 eV)
   163     163       --         0.169 au  C             1.00      2 P:x             7
                        (       4.589 eV)
   164     164       --         2.013 au  C             1.00      3 P:x             7
                        (      54.789 eV)
   165     165      0.667      -0.193 au  C             1.00      1 P:y             7
                        (      -5.239 eV)
   166     166       --         0.169 au  C             1.00      2 P:y             7
                        (       4.589 eV)
   167     167       --         2.013 au  C             1.00      3 P:y             7
                        (      54.789 eV)
   168     168      0.667      -0.193 au  C             1.00      1 P:z             7
                        (      -5.239 eV)
   169     169       --         0.169 au  C             1.00      2 P:z             7
                        (       4.589 eV)
   170     170       --         2.013 au  C             1.00      3 P:z             7
                        (      54.789 eV)
   171     171       --         1.243 au  C             1.00      1 D:z2            7
                        (      33.824 eV)
   172     172       --         1.243 au  C             1.00      1 D:x2-y2         7
                        (      33.824 eV)
   173     173       --         1.243 au  C             1.00      1 D:xy            7
                        (      33.824 eV)
   174     174       --         1.243 au  C             1.00      1 D:xz            7
                        (      33.824 eV)
   175     175       --         1.243 au  C             1.00      1 D:yz            7
                        (      33.824 eV)
   176     176       --         4.016 au  C             1.00      1 F:z3            7
                        (     109.271 eV)
   177     177       --         4.016 au  C             1.00      1 F:z             7
                        (     109.271 eV)
   178     178       --         4.016 au  C             1.00      1 F:xyz           7
                        (     109.271 eV)
   179     179       --         4.016 au  C             1.00      1 F:z2x           7
                        (     109.271 eV)
   180     180       --         4.016 au  C             1.00      1 F:z2y           7
                        (     109.271 eV)
   181     181       --         4.016 au  C             1.00      1 F:x             7
                        (     109.271 eV)
   182     182       --         4.016 au  C             1.00      1 F:y             7
                        (     109.271 eV)
   183     183      2.000     -10.066 au  C             1.00      1 S               8
                        (    -273.921 eV)
   184     184      2.000      -0.501 au  C             1.00      2 S               8
                        (     -13.620 eV)
   185     185       --         0.373 au  C             1.00      3 S               8
                        (      10.158 eV)
   186     186       --         5.405 au  C             1.00      4 S               8
                        (     147.073 eV)
   187     187       --        49.848 au  C             1.00      5 S               8
                        (    1356.422 eV)
   188     188      0.667      -0.193 au  C             1.00      1 P:x             8
                        (      -5.239 eV)
   189     189       --         0.169 au  C             1.00      2 P:x             8
                        (       4.589 eV)
   190     190       --         2.013 au  C             1.00      3 P:x             8
                        (      54.789 eV)
   191     191      0.667      -0.193 au  C             1.00      1 P:y             8
                        (      -5.239 eV)
   192     192       --         0.169 au  C             1.00      2 P:y             8
                        (       4.589 eV)
   193     193       --         2.013 au  C             1.00      3 P:y             8
                        (      54.789 eV)
   194     194      0.667      -0.193 au  C             1.00      1 P:z             8
                        (      -5.239 eV)
   195     195       --         0.169 au  C             1.00      2 P:z             8
                        (       4.589 eV)
   196     196       --         2.013 au  C             1.00      3 P:z             8
                        (      54.789 eV)
   197     197       --         1.243 au  C             1.00      1 D:z2            8
                        (      33.824 eV)
   198     198       --         1.243 au  C             1.00      1 D:x2-y2         8
                        (      33.824 eV)
   199     199       --         1.243 au  C             1.00      1 D:xy            8
                        (      33.824 eV)
   200     200       --         1.243 au  C             1.00      1 D:xz            8
                        (      33.824 eV)
   201     201       --         1.243 au  C             1.00      1 D:yz            8
                        (      33.824 eV)
   202     202       --         4.016 au  C             1.00      1 F:z3            8
                        (     109.271 eV)
   203     203       --         4.016 au  C             1.00      1 F:z             8
                        (     109.271 eV)
   204     204       --         4.016 au  C             1.00      1 F:xyz           8
                        (     109.271 eV)
   205     205       --         4.016 au  C             1.00      1 F:z2x           8
                        (     109.271 eV)
   206     206       --         4.016 au  C             1.00      1 F:z2y           8
                        (     109.271 eV)
   207     207       --         4.016 au  C             1.00      1 F:x             8
                        (     109.271 eV)
   208     208       --         4.016 au  C             1.00      1 F:y             8
                        (     109.271 eV)
   209     209      2.000     -10.066 au  C             1.00      1 S               9
                        (    -273.921 eV)
   210     210      2.000      -0.501 au  C             1.00      2 S               9
                        (     -13.620 eV)
   211     211       --         0.373 au  C             1.00      3 S               9
                        (      10.158 eV)
   212     212       --         5.405 au  C             1.00      4 S               9
                        (     147.073 eV)
   213     213       --        49.848 au  C             1.00      5 S               9
                        (    1356.422 eV)
   214     214      0.667      -0.193 au  C             1.00      1 P:x             9
                        (      -5.239 eV)
   215     215       --         0.169 au  C             1.00      2 P:x             9
                        (       4.589 eV)
   216     216       --         2.013 au  C             1.00      3 P:x             9
                        (      54.789 eV)
   217     217      0.667      -0.193 au  C             1.00      1 P:y             9
                        (      -5.239 eV)
   218     218       --         0.169 au  C             1.00      2 P:y             9
                        (       4.589 eV)
   219     219       --         2.013 au  C             1.00      3 P:y             9
                        (      54.789 eV)
   220     220      0.667      -0.193 au  C             1.00      1 P:z             9
                        (      -5.239 eV)
   221     221       --         0.169 au  C             1.00      2 P:z             9
                        (       4.589 eV)
   222     222       --         2.013 au  C             1.00      3 P:z             9
                        (      54.789 eV)
   223     223       --         1.243 au  C             1.00      1 D:z2            9
                        (      33.824 eV)
   224     224       --         1.243 au  C             1.00      1 D:x2-y2         9
                        (      33.824 eV)
   225     225       --         1.243 au  C             1.00      1 D:xy            9
                        (      33.824 eV)
   226     226       --         1.243 au  C             1.00      1 D:xz            9
                        (      33.824 eV)
   227     227       --         1.243 au  C             1.00      1 D:yz            9
                        (      33.824 eV)
   228     228       --         4.016 au  C             1.00      1 F:z3            9
                        (     109.271 eV)
   229     229       --         4.016 au  C             1.00      1 F:z             9
                        (     109.271 eV)
   230     230       --         4.016 au  C             1.00      1 F:xyz           9
                        (     109.271 eV)
   231     231       --         4.016 au  C             1.00      1 F:z2x           9
                        (     109.271 eV)
   232     232       --         4.016 au  C             1.00      1 F:z2y           9
                        (     109.271 eV)
   233     233       --         4.016 au  C             1.00      1 F:x             9
                        (     109.271 eV)
   234     234       --         4.016 au  C             1.00      1 F:y             9
                        (     109.271 eV)
   235     235      2.000     -10.066 au  C             1.00      1 S              10
                        (    -273.921 eV)
   236     236      2.000      -0.501 au  C             1.00      2 S              10
                        (     -13.620 eV)
   237     237       --         0.373 au  C             1.00      3 S              10
                        (      10.158 eV)
   238     238       --         5.405 au  C             1.00      4 S              10
                        (     147.073 eV)
   239     239       --        49.848 au  C             1.00      5 S              10
                        (    1356.422 eV)
   240     240      0.667      -0.193 au  C             1.00      1 P:x            10
                        (      -5.239 eV)
   241     241       --         0.169 au  C             1.00      2 P:x            10
                        (       4.589 eV)
   242     242       --         2.013 au  C             1.00      3 P:x            10
                        (      54.789 eV)
   243     243      0.667      -0.193 au  C             1.00      1 P:y            10
                        (      -5.239 eV)
   244     244       --         0.169 au  C             1.00      2 P:y            10
                        (       4.589 eV)
   245     245       --         2.013 au  C             1.00      3 P:y            10
                        (      54.789 eV)
   246     246      0.667      -0.193 au  C             1.00      1 P:z            10
                        (      -5.239 eV)
   247     247       --         0.169 au  C             1.00      2 P:z            10
                        (       4.589 eV)
   248     248       --         2.013 au  C             1.00      3 P:z            10
                        (      54.789 eV)
   249     249       --         1.243 au  C             1.00      1 D:z2           10
                        (      33.824 eV)
   250     250       --         1.243 au  C             1.00      1 D:x2-y2        10
                        (      33.824 eV)
   251     251       --         1.243 au  C             1.00      1 D:xy           10
                        (      33.824 eV)
   252     252       --         1.243 au  C             1.00      1 D:xz           10
                        (      33.824 eV)
   253     253       --         1.243 au  C             1.00      1 D:yz           10
                        (      33.824 eV)
   254     254       --         4.016 au  C             1.00      1 F:z3           10
                        (     109.271 eV)
   255     255       --         4.016 au  C             1.00      1 F:z            10
                        (     109.271 eV)
   256     256       --         4.016 au  C             1.00      1 F:xyz          10
                        (     109.271 eV)
   257     257       --         4.016 au  C             1.00      1 F:z2x          10
                        (     109.271 eV)
   258     258       --         4.016 au  C             1.00      1 F:z2y          10
                        (     109.271 eV)
   259     259       --         4.016 au  C             1.00      1 F:x            10
                        (     109.271 eV)
   260     260       --         4.016 au  C             1.00      1 F:y            10
                        (     109.271 eV)
   261     261      2.000     -18.941 au  O             1.00      1 S              11
                        (    -515.403 eV)
   262     262      2.000      -0.876 au  O             1.00      2 S              11
                        (     -23.838 eV)
   263     263       --         0.791 au  O             1.00      3 S              11
                        (      21.524 eV)
   264     264       --        13.422 au  O             1.00      4 S              11
                        (     365.226 eV)
   265     265       --       121.561 au  O             1.00      5 S              11
                        (    3307.838 eV)
   266     266      1.333      -0.331 au  O             1.00      1 P:x            11
                        (      -9.020 eV)
   267     267       --         0.347 au  O             1.00      2 P:x            11
                        (       9.437 eV)
   268     268       --         3.820 au  O             1.00      3 P:x            11
                        (     103.939 eV)
   269     269      1.333      -0.331 au  O             1.00      1 P:y            11
                        (      -9.020 eV)
   270     270       --         0.347 au  O             1.00      2 P:y            11
                        (       9.437 eV)
   271     271       --         3.820 au  O             1.00      3 P:y            11
                        (     103.939 eV)
   272     272      1.333      -0.331 au  O             1.00      1 P:z            11
                        (      -9.020 eV)
   273     273       --         0.347 au  O             1.00      2 P:z            11
                        (       9.437 eV)
   274     274       --         3.820 au  O             1.00      3 P:z            11
                        (     103.939 eV)
   275     275       --         1.071 au  O             1.00      1 D:z2           11
                        (      29.134 eV)
   276     276       --         1.071 au  O             1.00      1 D:x2-y2        11
                        (      29.134 eV)
   277     277       --         1.071 au  O             1.00      1 D:xy           11
                        (      29.134 eV)
   278     278       --         1.071 au  O             1.00      1 D:xz           11
                        (      29.134 eV)
   279     279       --         1.071 au  O             1.00      1 D:yz           11
                        (      29.134 eV)
   280     280       --         3.359 au  O             1.00      1 F:z3           11
                        (      91.410 eV)
   281     281       --         3.359 au  O             1.00      1 F:z            11
                        (      91.410 eV)
   282     282       --         3.359 au  O             1.00      1 F:xyz          11
                        (      91.410 eV)
   283     283       --         3.359 au  O             1.00      1 F:z2x          11
                        (      91.410 eV)
   284     284       --         3.359 au  O             1.00      1 F:z2y          11
                        (      91.410 eV)
   285     285       --         3.359 au  O             1.00      1 F:x            11
                        (      91.410 eV)
   286     286       --         3.359 au  O             1.00      1 F:y            11
                        (      91.410 eV)
   287     287      1.000      -0.240 au  H             1.00      1 S              12
                        (      -6.532 eV)
   288     288       --         0.088 au  H             1.00      2 S              12
                        (       2.394 eV)
   289     289       --         1.502 au  H             1.00      3 S              12
                        (      40.869 eV)
   290     290       --         0.406 au  H             1.00      1 P:x            12
                        (      11.051 eV)
   291     291       --         0.406 au  H             1.00      1 P:y            12
                        (      11.051 eV)
   292     292       --         0.406 au  H             1.00      1 P:z            12
                        (      11.051 eV)
   293     293       --         2.569 au  H             1.00      1 D:z2           12
                        (      69.917 eV)
   294     294       --         2.569 au  H             1.00      1 D:x2-y2        12
                        (      69.917 eV)
   295     295       --         2.569 au  H             1.00      1 D:xy           12
                        (      69.917 eV)
   296     296       --         2.569 au  H             1.00      1 D:xz           12
                        (      69.917 eV)
   297     297       --         2.569 au  H             1.00      1 D:yz           12
                        (      69.917 eV)
   298     298      1.000      -0.240 au  H             1.00      1 S              13
                        (      -6.532 eV)
   299     299       --         0.088 au  H             1.00      2 S              13
                        (       2.394 eV)
   300     300       --         1.502 au  H             1.00      3 S              13
                        (      40.869 eV)
   301     301       --         0.406 au  H             1.00      1 P:x            13
                        (      11.051 eV)
   302     302       --         0.406 au  H             1.00      1 P:y            13
                        (      11.051 eV)
   303     303       --         0.406 au  H             1.00      1 P:z            13
                        (      11.051 eV)
   304     304       --         2.569 au  H             1.00      1 D:z2           13
                        (      69.917 eV)
   305     305       --         2.569 au  H             1.00      1 D:x2-y2        13
                        (      69.917 eV)
   306     306       --         2.569 au  H             1.00      1 D:xy           13
                        (      69.917 eV)
   307     307       --         2.569 au  H             1.00      1 D:xz           13
                        (      69.917 eV)
   308     308       --         2.569 au  H             1.00      1 D:yz           13
                        (      69.917 eV)
   309     309      1.000      -0.240 au  H             1.00      1 S              14
                        (      -6.532 eV)
   310     310       --         0.088 au  H             1.00      2 S              14
                        (       2.394 eV)
   311     311       --         1.502 au  H             1.00      3 S              14
                        (      40.869 eV)
   312     312       --         0.406 au  H             1.00      1 P:x            14
                        (      11.051 eV)
   313     313       --         0.406 au  H             1.00      1 P:y            14
                        (      11.051 eV)
   314     314       --         0.406 au  H             1.00      1 P:z            14
                        (      11.051 eV)
   315     315       --         2.569 au  H             1.00      1 D:z2           14
                        (      69.917 eV)
   316     316       --         2.569 au  H             1.00      1 D:x2-y2        14
                        (      69.917 eV)
   317     317       --         2.569 au  H             1.00      1 D:xy           14
                        (      69.917 eV)
   318     318       --         2.569 au  H             1.00      1 D:xz           14
                        (      69.917 eV)
   319     319       --         2.569 au  H             1.00      1 D:yz           14
                        (      69.917 eV)
   320     320      1.000      -0.240 au  H             1.00      1 S              15
                        (      -6.532 eV)
   321     321       --         0.088 au  H             1.00      2 S              15
                        (       2.394 eV)
   322     322       --         1.502 au  H             1.00      3 S              15
                        (      40.869 eV)
   323     323       --         0.406 au  H             1.00      1 P:x            15
                        (      11.051 eV)
   324     324       --         0.406 au  H             1.00      1 P:y            15
                        (      11.051 eV)
   325     325       --         0.406 au  H             1.00      1 P:z            15
                        (      11.051 eV)
   326     326       --         2.569 au  H             1.00      1 D:z2           15
                        (      69.917 eV)
   327     327       --         2.569 au  H             1.00      1 D:x2-y2        15
                        (      69.917 eV)
   328     328       --         2.569 au  H             1.00      1 D:xy           15
                        (      69.917 eV)
   329     329       --         2.569 au  H             1.00      1 D:xz           15
                        (      69.917 eV)
   330     330       --         2.569 au  H             1.00      1 D:yz           15
                        (      69.917 eV)
   331     331      1.000      -0.240 au  H             1.00      1 S              16
                        (      -6.532 eV)
   332     332       --         0.088 au  H             1.00      2 S              16
                        (       2.394 eV)
   333     333       --         1.502 au  H             1.00      3 S              16
                        (      40.869 eV)
   334     334       --         0.406 au  H             1.00      1 P:x            16
                        (      11.051 eV)
   335     335       --         0.406 au  H             1.00      1 P:y            16
                        (      11.051 eV)
   336     336       --         0.406 au  H             1.00      1 P:z            16
                        (      11.051 eV)
   337     337       --         2.569 au  H             1.00      1 D:z2           16
                        (      69.917 eV)
   338     338       --         2.569 au  H             1.00      1 D:x2-y2        16
                        (      69.917 eV)
   339     339       --         2.569 au  H             1.00      1 D:xy           16
                        (      69.917 eV)
   340     340       --         2.569 au  H             1.00      1 D:xz           16
                        (      69.917 eV)
   341     341       --         2.569 au  H             1.00      1 D:yz           16
                        (      69.917 eV)
   342     342      1.000      -0.240 au  H             1.00      1 S              17
                        (      -6.532 eV)
   343     343       --         0.088 au  H             1.00      2 S              17
                        (       2.394 eV)
   344     344       --         1.502 au  H             1.00      3 S              17
                        (      40.869 eV)
   345     345       --         0.406 au  H             1.00      1 P:x            17
                        (      11.051 eV)
   346     346       --         0.406 au  H             1.00      1 P:y            17
                        (      11.051 eV)
   347     347       --         0.406 au  H             1.00      1 P:z            17
                        (      11.051 eV)
   348     348       --         2.569 au  H             1.00      1 D:z2           17
                        (      69.917 eV)
   349     349       --         2.569 au  H             1.00      1 D:x2-y2        17
                        (      69.917 eV)
   350     350       --         2.569 au  H             1.00      1 D:xy           17
                        (      69.917 eV)
   351     351       --         2.569 au  H             1.00      1 D:xz           17
                        (      69.917 eV)
   352     352       --         2.569 au  H             1.00      1 D:yz           17
                        (      69.917 eV)
   353     353      1.000      -0.240 au  H             1.00      1 S              18
                        (      -6.532 eV)
   354     354       --         0.088 au  H             1.00      2 S              18
                        (       2.394 eV)
   355     355       --         1.502 au  H             1.00      3 S              18
                        (      40.869 eV)
   356     356       --         0.406 au  H             1.00      1 P:x            18
                        (      11.051 eV)
   357     357       --         0.406 au  H             1.00      1 P:y            18
                        (      11.051 eV)
   358     358       --         0.406 au  H             1.00      1 P:z            18
                        (      11.051 eV)
   359     359       --         2.569 au  H             1.00      1 D:z2           18
                        (      69.917 eV)
   360     360       --         2.569 au  H             1.00      1 D:x2-y2        18
                        (      69.917 eV)
   361     361       --         2.569 au  H             1.00      1 D:xy           18
                        (      69.917 eV)
   362     362       --         2.569 au  H             1.00      1 D:xz           18
                        (      69.917 eV)
   363     363       --         2.569 au  H             1.00      1 D:yz           18
                        (      69.917 eV)
   364     364      1.000      -0.240 au  H             1.00      1 S              19
                        (      -6.532 eV)
   365     365       --         0.088 au  H             1.00      2 S              19
                        (       2.394 eV)
   366     366       --         1.502 au  H             1.00      3 S              19
                        (      40.869 eV)
   367     367       --         0.406 au  H             1.00      1 P:x            19
                        (      11.051 eV)
   368     368       --         0.406 au  H             1.00      1 P:y            19
                        (      11.051 eV)
   369     369       --         0.406 au  H             1.00      1 P:z            19
                        (      11.051 eV)
   370     370       --         2.569 au  H             1.00      1 D:z2           19
                        (      69.917 eV)
   371     371       --         2.569 au  H             1.00      1 D:x2-y2        19
                        (      69.917 eV)
   372     372       --         2.569 au  H             1.00      1 D:xy           19
                        (      69.917 eV)
   373     373       --         2.569 au  H             1.00      1 D:xz           19
                        (      69.917 eV)
   374     374       --         2.569 au  H             1.00      1 D:yz           19
                        (      69.917 eV)
   375     375      1.000      -0.240 au  H             1.00      1 S              20
                        (      -6.532 eV)
   376     376       --         0.088 au  H             1.00      2 S              20
                        (       2.394 eV)
   377     377       --         1.502 au  H             1.00      3 S              20
                        (      40.869 eV)
   378     378       --         0.406 au  H             1.00      1 P:x            20
                        (      11.051 eV)
   379     379       --         0.406 au  H             1.00      1 P:y            20
                        (      11.051 eV)
   380     380       --         0.406 au  H             1.00      1 P:z            20
                        (      11.051 eV)
   381     381       --         2.569 au  H             1.00      1 D:z2           20
                        (      69.917 eV)
   382     382       --         2.569 au  H             1.00      1 D:x2-y2        20
                        (      69.917 eV)
   383     383       --         2.569 au  H             1.00      1 D:xy           20
                        (      69.917 eV)
   384     384       --         2.569 au  H             1.00      1 D:xz           20
                        (      69.917 eV)
   385     385       --         2.569 au  H             1.00      1 D:yz           20
                        (      69.917 eV)
   386     386      1.000      -0.240 au  H             1.00      1 S              21
                        (      -6.532 eV)
   387     387       --         0.088 au  H             1.00      2 S              21
                        (       2.394 eV)
   388     388       --         1.502 au  H             1.00      3 S              21
                        (      40.869 eV)
   389     389       --         0.406 au  H             1.00      1 P:x            21
                        (      11.051 eV)
   390     390       --         0.406 au  H             1.00      1 P:y            21
                        (      11.051 eV)
   391     391       --         0.406 au  H             1.00      1 P:z            21
                        (      11.051 eV)
   392     392       --         2.569 au  H             1.00      1 D:z2           21
                        (      69.917 eV)
   393     393       --         2.569 au  H             1.00      1 D:x2-y2        21
                        (      69.917 eV)
   394     394       --         2.569 au  H             1.00      1 D:xy           21
                        (      69.917 eV)
   395     395       --         2.569 au  H             1.00      1 D:xz           21
                        (      69.917 eV)
   396     396       --         2.569 au  H             1.00      1 D:yz           21
                        (      69.917 eV)
   397     397      1.000      -0.240 au  H             1.00      1 S              22
                        (      -6.532 eV)
   398     398       --         0.088 au  H             1.00      2 S              22
                        (       2.394 eV)
   399     399       --         1.502 au  H             1.00      3 S              22
                        (      40.869 eV)
   400     400       --         0.406 au  H             1.00      1 P:x            22
                        (      11.051 eV)
   401     401       --         0.406 au  H             1.00      1 P:y            22
                        (      11.051 eV)
   402     402       --         0.406 au  H             1.00      1 P:z            22
                        (      11.051 eV)
   403     403       --         2.569 au  H             1.00      1 D:z2           22
                        (      69.917 eV)
   404     404       --         2.569 au  H             1.00      1 D:x2-y2        22
                        (      69.917 eV)
   405     405       --         2.569 au  H             1.00      1 D:xy           22
                        (      69.917 eV)
   406     406       --         2.569 au  H             1.00      1 D:xz           22
                        (      69.917 eV)
   407     407       --         2.569 au  H             1.00      1 D:yz           22
                        (      69.917 eV)
   408     408      1.000      -0.240 au  H             1.00      1 S              23
                        (      -6.532 eV)
   409     409       --         0.088 au  H             1.00      2 S              23
                        (       2.394 eV)
   410     410       --         1.502 au  H             1.00      3 S              23
                        (      40.869 eV)
   411     411       --         0.406 au  H             1.00      1 P:x            23
                        (      11.051 eV)
   412     412       --         0.406 au  H             1.00      1 P:y            23
                        (      11.051 eV)
   413     413       --         0.406 au  H             1.00      1 P:z            23
                        (      11.051 eV)
   414     414       --         2.569 au  H             1.00      1 D:z2           23
                        (      69.917 eV)
   415     415       --         2.569 au  H             1.00      1 D:x2-y2        23
                        (      69.917 eV)
   416     416       --         2.569 au  H             1.00      1 D:xy           23
                        (      69.917 eV)
   417     417       --         2.569 au  H             1.00      1 D:xz           23
                        (      69.917 eV)
   418     418       --         2.569 au  H             1.00      1 D:yz           23
                        (      69.917 eV)
   419     419      1.000      -0.240 au  H             1.00      1 S              24
                        (      -6.532 eV)
   420     420       --         0.088 au  H             1.00      2 S              24
                        (       2.394 eV)
   421     421       --         1.502 au  H             1.00      3 S              24
                        (      40.869 eV)
   422     422       --         0.406 au  H             1.00      1 P:x            24
                        (      11.051 eV)
   423     423       --         0.406 au  H             1.00      1 P:y            24
                        (      11.051 eV)
   424     424       --         0.406 au  H             1.00      1 P:z            24
                        (      11.051 eV)
   425     425       --         2.569 au  H             1.00      1 D:z2           24
                        (      69.917 eV)
   426     426       --         2.569 au  H             1.00      1 D:x2-y2        24
                        (      69.917 eV)
   427     427       --         2.569 au  H             1.00      1 D:xy           24
                        (      69.917 eV)
   428     428       --         2.569 au  H             1.00      1 D:xz           24
                        (      69.917 eV)
   429     429       --         2.569 au  H             1.00      1 D:yz           24
                        (      69.917 eV)
   430     430      1.000      -0.240 au  H             1.00      1 S              25
                        (      -6.532 eV)
   431     431       --         0.088 au  H             1.00      2 S              25
                        (       2.394 eV)
   432     432       --         1.502 au  H             1.00      3 S              25
                        (      40.869 eV)
   433     433       --         0.406 au  H             1.00      1 P:x            25
                        (      11.051 eV)
   434     434       --         0.406 au  H             1.00      1 P:y            25
                        (      11.051 eV)
   435     435       --         0.406 au  H             1.00      1 P:z            25
                        (      11.051 eV)
   436     436       --         2.569 au  H             1.00      1 D:z2           25
                        (      69.917 eV)
   437     437       --         2.569 au  H             1.00      1 D:x2-y2        25
                        (      69.917 eV)
   438     438       --         2.569 au  H             1.00      1 D:xy           25
                        (      69.917 eV)
   439     439       --         2.569 au  H             1.00      1 D:xz           25
                        (      69.917 eV)
   440     440       --         2.569 au  H             1.00      1 D:yz           25
                        (      69.917 eV)



 ================================
 (Slater-type)  F U N C T I O N S  ***  (Basis and Fit)  ***
 ================================
  

 Atom Type    1  (C)
 ==============

 Valence Basis Sets:  10
 -----------------------
   1 S    7.680000
   1 S    5.000000
   2 S    1.280000
   2 S    2.100000
   2 S    4.600000
   2 P    0.820000
   2 P    1.480000
   2 P    2.940000
   3 D    2.200000
   4 F    3.300000

 Atom Type    2  (O)
 ==============

 Valence Basis Sets:  10
 -----------------------
   1 S    9.800000
   1 S    6.800000
   2 S    7.580000
   2 S    2.880000
   2 S    1.720000
   2 P    4.080000
   2 P    2.080000
   2 P    1.120000
   3 D    2.000000
   4 F    3.000000

 Atom Type    3  (H)
 ==============

 Valence Basis Sets:   5
 -----------------------
   1 S    0.690000
   1 S    0.920000
   1 S    1.580000
   2 P    1.250000
   3 D    2.500000


 BAS: List of all Elementary Cartesian Basis Functions
 =====================================================

 The numbering in the list below (to the right of the function characteristics) is referred
 to in print-outs of MO eigenvectors and Mulliken populations in the BAS representation
 (as contrasted to the SFO representation).

 Notes:
 1. The functions are characterized by a polynomial prefactor (powers of x,y,z and r) and
    an exponential decay factor alpha.
 2. Since the basis sets are specific for an atom TYPE, the individual functions occur on
    all atoms of that type.
 3. The word 'Core' in the left margin signals that it is a Core Function (CF) : not a
    degree of freedom in the valence set, but only used to ensure orthogonalization of
    the other valence basis functions on the frozen Core Orbitals.


 (power of) X  Y  Z  R     Alpha  on Atom
            ==========     =====     ==========

 C                                    1    2    3    4    5    6    7    8    9   10
                                  ---------------------------------------------------------------------------
            0  0  0  0     7.680      1   31   61   91  121  151  181  211  241  271
            0  0  0  0     5.000      2   32   62   92  122  152  182  212  242  272
            0  0  0  1     1.280      3   33   63   93  123  153  183  213  243  273
            0  0  0  1     2.100      4   34   64   94  124  154  184  214  244  274
            0  0  0  1     4.600      5   35   65   95  125  155  185  215  245  275
            1  0  0  0     0.820      6   36   66   96  126  156  186  216  246  276
            0  1  0  0     0.820      7   37   67   97  127  157  187  217  247  277
            0  0  1  0     0.820      8   38   68   98  128  158  188  218  248  278
            1  0  0  0     1.480      9   39   69   99  129  159  189  219  249  279
            0  1  0  0     1.480     10   40   70  100  130  160  190  220  250  280
            0  0  1  0     1.480     11   41   71  101  131  161  191  221  251  281
            1  0  0  0     2.940     12   42   72  102  132  162  192  222  252  282
            0  1  0  0     2.940     13   43   73  103  133  163  193  223  253  283
            0  0  1  0     2.940     14   44   74  104  134  164  194  224  254  284
            2  0  0  0     2.200     15   45   75  105  135  165  195  225  255  285
            1  1  0  0     2.200     16   46   76  106  136  166  196  226  256  286
            1  0  1  0     2.200     17   47   77  107  137  167  197  227  257  287
            0  2  0  0     2.200     18   48   78  108  138  168  198  228  258  288
            0  1  1  0     2.200     19   49   79  109  139  169  199  229  259  289
            0  0  2  0     2.200     20   50   80  110  140  170  200  230  260  290
            3  0  0  0     3.300     21   51   81  111  141  171  201  231  261  291
            2  1  0  0     3.300     22   52   82  112  142  172  202  232  262  292
            2  0  1  0     3.300     23   53   83  113  143  173  203  233  263  293
            1  2  0  0     3.300     24   54   84  114  144  174  204  234  264  294
            1  1  1  0     3.300     25   55   85  115  145  175  205  235  265  295
            1  0  2  0     3.300     26   56   86  116  146  176  206  236  266  296
            0  3  0  0     3.300     27   57   87  117  147  177  207  237  267  297
            0  2  1  0     3.300     28   58   88  118  148  178  208  238  268  298
            0  1  2  0     3.300     29   59   89  119  149  179  209  239  269  299
            0  0  3  0     3.300     30   60   90  120  150  180  210  240  270  300

 O                                   11
                                  ---------------------------------------------------------------------------
            0  0  0  0     9.800    301
            0  0  0  0     6.800    302
            0  0  0  1     7.580    303
            0  0  0  1     2.880    304
            0  0  0  1     1.720    305
            1  0  0  0     4.080    306
            0  1  0  0     4.080    307
[...]
                                    6.39%     2 P:x             4.589  0.00    10 C
                                   -6.06%     3 S              10.158  0.00     2 C
                                    5.65%     1 P:x            -5.239  0.67     8 C
                                   -5.61%     2 P:z             4.589  0.00     8 C
                                    5.06%     2 P:z             4.589  0.00     3 C
                                    5.03%     1 P:y            -5.239  0.67    10 C
                                    4.78%     1 P:z            -5.239  0.67     4 C
                                    4.53%     2 S             -13.620  2.00     2 C
                                    4.27%     1 P:x            -5.239  0.67    10 C
                                    4.26%     1 P:z            -5.239  0.67     3 C
                                   -4.19%     2 P:y             4.589  0.00     2 C
                                    3.81%     2 P:y             4.589  0.00    10 C
                                    3.81%     1 P:y            -5.239  0.67     5 C
                                    3.68%     1 S              -6.532  1.00    14 H
                                    3.53%     2 P:z             4.589  0.00     9 C
                                   -3.30%     2 P:z             4.589  0.00     4 C
                                    3.12%     2 P:x             4.589  0.00     7 C
                                    3.05%     2 P:z             4.589  0.00     2 C
                                    2.83%     1 S              -6.532  1.00    23 H
                                    2.74%     1 P:z            -5.239  0.67     8 C
                                   -2.73%     2 P:y             4.589  0.00     1 C
                                   -2.56%     2 P:x             4.589  0.00     8 C
                                    2.54%     2 P:y             4.589  0.00     3 C
                                   -2.54%     2 P:x             4.589  0.00     9 C
                                   -2.45%     2 S               2.394  0.00    14 H
                                    2.44%     1 P:x            -5.239  0.67     2 C
                                    2.42%     1 P:y            -5.239  0.67     4 C
                                   -2.25%     2 P:x             4.589  0.00     5 C
                                   -2.24%     3 S              10.158  0.00     7 C
                                   -2.17%     3 S              10.158  0.00     3 C
                                    2.02%     2 S               2.394  0.00    20 H
                                    2.01%     2 S             -13.620  2.00     7 C
                                    1.99%     2 P:z             4.589  0.00    10 C
                                   -1.93%     2 S               2.394  0.00    23 H
                                    1.83%     2 S             -13.620  2.00     3 C
                                    1.78%     2 P:y             4.589  0.00     4 C
                                    1.76%     1 P:x            -5.239  0.67     5 C
                                    1.74%     1 P:z            -5.239  0.67     7 C
                                   -1.67%     2 P:y             4.589  0.00     8 C
                                    1.61%     2 P:z             4.589  0.00     1 C
                                    1.61%     2 S             -13.620  2.00     9 C
                                   -1.51%     2 P:y             4.589  0.00     5 C
                                   -1.49%     3 S              10.158  0.00     6 C
                                    1.49%     1 P:y            -5.239  0.67     3 C
                                    1.47%     1 P:y            -5.239  0.67     7 C
                                    1.41%     1 S              -6.532  1.00    21 H
                                    1.37%     2 S               2.394  0.00    24 H
                                    1.26%     1 P:y            -5.239  0.67     8 C
                                    1.24%     2 S               2.394  0.00    18 H
                                    1.22%     1 P:y            -5.239  0.67     9 C
                                   -1.15%     2 S               2.394  0.00    21 H
                                    1.04%     2 S             -13.620  2.00     4 C
                                    1.03%     1 P:y            -5.239  0.67     2 C
                                   -1.03%     1 P:y            -5.239  0.67     1 C
                                   -1.03%     3 S              10.158  0.00     4 C



 =======================================================================
 Electrostatic potential at the Nuclei due to electrons and other nuclei
 =======================================================================
  
         Atom                  Potential
         ----                  ---------
     1)   C                  14.80162207
     2)   C                  14.79901011
     3)   C                  14.75985050
     4)   C                  14.77719918
     5)   C                  14.78395550
     6)   C                  14.77918049
     7)   C                  14.77231988
     8)   C                  14.74908498
     9)   C                  14.70946380
    10)   C                  14.77905187
    11)   O                  22.41654517
    12)   H                   1.10636640
    13)   H                   1.10718833
    14)   H                   1.11647555
    15)   H                   1.11800853
    16)   H                   1.12355349
    17)   H                   1.12418844
    18)   H                   1.11897287
    19)   H                   1.11925988
    20)   H                   1.11598051
    21)   H                   1.10907852
    22)   H                   1.09682964
    23)   H                   1.08941483
    24)   H                   1.08546051
    25)   H                   1.10165454
 Mulliken charges used for AMS results%charges...


    =====================
     CALCULATION RESULTS
    =====================

Energy (hartree)            -5.14915338


--------------
Atomic charges
--------------
  Index   Atom    Charge
      1      C   -0.0296
      2      C   -0.0366
      3      C    0.4184
      4      C    0.4213
      5      C    0.4057
      6      C    0.4521
      7      C    0.4210
      8      C    0.1533
      9      C    0.4611
     10      C    0.5896
     11      O   -0.4971
     12      H   -0.1902
     13      H   -0.1840
     14      H   -0.2036
     15      H   -0.2090
     16      H   -0.2077
     17      H   -0.2014
     18      H   -0.2175
     19      H   -0.2120
     20      H   -0.1747
     21      H   -0.2096
     22      H   -0.1774
     23      H   -0.2044
     24      H   -0.1741
     25      H   -0.1936


Dipole moment vector    (Debye):     3.87153351    0.78656692    0.43522924
              magnitude (Debye):     3.97452937


-----------------------
Molecular orbitals info
-----------------------
n orbitals:              440
n spin:                    1

Note: only printing virtual orbitals with
      energy smaller than HOMO + 100. eV

HOMO (eV):              -5.5081
LUMO (eV):              -1.6905
HOMO-LUMO gap (eV):      3.8176

   Index   Energy (eV)    Occupation
     283       93.9180         0.000       
     282       93.8597         0.000       
     281       93.7977         0.000       
     280       93.3251         0.000       
     279       93.2026         0.000       
     278       92.8058         0.000       
     277       92.2136         0.000       
     276       92.0338         0.000       
     275       91.5876         0.000       
     274       91.3472         0.000       
     273       91.2642         0.000       
     272       90.3490         0.000       
     271       89.4832         0.000       
     270       89.1515         0.000       
     269       88.7589         0.000       
     268       87.1663         0.000       
     267       86.7477         0.000       
     266       86.2042         0.000       
     265       85.0469         0.000       
     264       84.7120         0.000       
     263       84.2216         0.000       
     262       83.2866         0.000       
     261       83.1433         0.000       
     260       82.8659         0.000       
     259       82.3270         0.000       
     258       82.0452         0.000       
     257       81.8196         0.000       
     256       81.5004         0.000       
     255       81.2643         0.000       
     254       80.8928         0.000       
     253       80.5751         0.000       
     252       80.1605         0.000       
     251       79.9728         0.000       
     250       79.2752         0.000       
     249       78.9586         0.000       
     248       78.8984         0.000       
     247       78.5965         0.000       
     246       77.8785         0.000       
     245       77.3574         0.000       
     244       77.0632         0.000       
     243       77.0274         0.000       
     242       76.6735         0.000       
     241       76.2876         0.000       
     240       76.0639         0.000       
     239       75.8179         0.000       
     238       75.3659         0.000       
     237       74.9164         0.000       
     236       74.1183         0.000       
     235       73.6316         0.000       
     234       73.2508         0.000       
     233       72.6698         0.000       
     232       71.8462         0.000       
     231       71.5919         0.000       
     230       70.1778         0.000       
     229       69.6604         0.000       
     228       68.9155         0.000       
     227       68.7062         0.000       
     226       67.5175         0.000       
     225       67.0651         0.000       
     224       66.6006         0.000       
     223       66.1076         0.000       
     222       65.7507         0.000       
     221       65.1917         0.000       
     220       64.8669         0.000       
     219       63.8098         0.000       
     218       63.2416         0.000       
     217       63.2053         0.000       
     216       62.3086         0.000       
     215       62.0091         0.000       
     214       61.1383         0.000       
     213       60.6856         0.000       
     212       60.2278         0.000       
     211       59.5075         0.000       
     210       59.1170         0.000       
     209       58.4409         0.000       
     208       57.9457         0.000       
     207       57.6374         0.000       
     206       56.9641         0.000       
     205       56.6018         0.000       
     204       56.0037         0.000       
     203       55.4130         0.000       
     202       55.2943         0.000       
     201       54.5406         0.000       
     200       53.9638         0.000       
     199       53.3992         0.000       
     198       53.3653         0.000       
     197       52.9382         0.000       
     196       52.4476         0.000       
     195       52.1235         0.000       
     194       51.5598         0.000       
     193       50.9906         0.000       
     192       50.6325         0.000       
     191       50.0362         0.000       
     190       49.8731         0.000       
     189       49.1101         0.000       
     188       48.7895         0.000       
     187       48.2046         0.000       
     186       47.8627         0.000       
     185       47.5174         0.000       
     184       47.3988         0.000       
     183       46.2239         0.000       
     182       46.0901         0.000       
     181       45.1019         0.000       
     180       44.7419         0.000       
     179       44.3311         0.000       
     178       43.9879         0.000       
     177       43.5700         0.000       
     176       42.7434         0.000       
     175       42.2959         0.000       
     174       41.9554         0.000       
     173       41.5234         0.000       
     172       41.4465         0.000       
     171       40.1221         0.000       
     170       39.5817         0.000       
     169       39.5317         0.000       
     168       39.2873         0.000       
     167       38.8895         0.000       
     166       38.3098         0.000       
     165       38.2278         0.000       
     164       37.7321         0.000       
     163       37.5746         0.000       
     162       37.1127         0.000       
     161       36.9753         0.000       
     160       36.6837         0.000       
     159       35.9929         0.000       
     158       35.9364         0.000       
     157       35.4590         0.000       
     156       35.4019         0.000       
     155       35.2035         0.000       
     154       34.6647         0.000       
     153       34.4515         0.000       
     152       34.2110         0.000       
     151       34.1304         0.000       
     150       33.7922         0.000       
     149       33.4987         0.000       
     148       33.1142         0.000       
     147       32.6501         0.000       
     146       32.4221         0.000       
     145       31.7398         0.000       
     144       31.6415         0.000       
     143       31.1446         0.000       
     142       30.8920         0.000       
     141       30.5023         0.000       
     140       29.9873         0.000       
     139       29.6278         0.000       
     138       29.3239         0.000       
     137       29.1878         0.000       
     136       28.9784         0.000       
     135       28.6334         0.000       
     134       28.2224         0.000       
     133       27.7909         0.000       
     132       27.4687         0.000       
     131       26.5168         0.000       
     130       26.1033         0.000       
     129       25.9248         0.000       
     128       25.5187         0.000       
     127       24.5966         0.000       
     126       24.1981         0.000       
     125       23.5570         0.000       
     124       22.8945         0.000       
     123       22.6592         0.000       
     122       22.4283         0.000       
     121       22.1127         0.000       
     120       21.7143         0.000       
     119       20.9912         0.000       
     118       20.8775         0.000       
     117       20.3453         0.000       
     116       19.6869         0.000       
     115       19.0007         0.000       
     114       17.9399         0.000       
     113       17.8875         0.000       
     112       17.2991         0.000       
     111       16.6403         0.000       
     110       15.5841         0.000       
     109       15.4081         0.000       
     108       14.6937         0.000       
     107       14.3378         0.000       
     106       14.2949         0.000       
     105       13.6597         0.000       
     104       13.5426         0.000       
     103       13.2179         0.000       
     102       13.0580         0.000       
     101       12.4520         0.000       
     100       12.2309         0.000       
      99       12.0510         0.000       
      98       11.8575         0.000       
      97       11.7044         0.000       
      96       11.5370         0.000       
      95       11.2099         0.000       
      94       10.9850         0.000       
      93       10.8430         0.000       
      92       10.8162         0.000       
      91       10.4737         0.000       
      90       10.4274         0.000       
      89       10.1688         0.000       
      88       10.1311         0.000       
      87        9.9057         0.000       
      86        9.2681         0.000       
      85        9.1211         0.000       
      84        8.9436         0.000       
      83        8.7162         0.000       
      82        8.6308         0.000       
      81        8.4106         0.000       
      80        8.3418         0.000       
      79        8.1536         0.000       
      78        7.6985         0.000       
      77        7.3966         0.000       
      76        7.1024         0.000       
      75        6.7953         0.000       
      74        6.6785         0.000       
      73        6.2277         0.000       
      72        5.9418         0.000       
      71        5.8283         0.000       
      70        5.5074         0.000       
      69        5.2911         0.000       
      68        5.0571         0.000       
      67        4.8278         0.000       
      66        4.5347         0.000       
      65        4.3667         0.000       
      64        4.2735         0.000       
      63        4.0479         0.000       
      62        3.8674         0.000       
      61        3.6241         0.000       
      60        3.3637         0.000       
      59        3.2222         0.000       
      58        2.8329         0.000       
      57        2.3410         0.000       
      56        2.2474         0.000       
      55        2.0009         0.000       
      54        1.7880         0.000       
      53        1.4379         0.000       
      52        1.3929         0.000       
      51        1.3064         0.000       
      50        0.9992         0.000       
      49        0.8288         0.000       
      48        0.2269         0.000       
      47        0.2021         0.000       
      46        0.1498         0.000       
      45       -0.1798         0.000       
      44       -0.4937         0.000       
      43       -1.5060         0.000       
      42       -1.6905         0.000 < LUMO
      41       -5.5081         2.000 < HOMO
      40       -5.8869         2.000       
      39       -6.0350         2.000       
      38       -7.8685         2.000       
      37       -7.9290         2.000       
      36       -7.9839         2.000       
      35       -8.5482         2.000       
      34       -8.9756         2.000       
      33       -9.0835         2.000       
      32       -9.3163         2.000       
      31       -9.5581         2.000       
      30       -9.8907         2.000       
      29      -10.1458         2.000       
      28      -10.4884         2.000       
      27      -10.7300         2.000       
      26      -11.0743         2.000       
      25      -11.1955         2.000       
      24      -11.6041         2.000       
      23      -11.8710         2.000       
      22      -12.0791         2.000       
      21      -13.2783         2.000       
      20      -14.0012         2.000       
      19      -15.0992         2.000       
      18      -16.8408         2.000       
      17      -16.8623         2.000       
      16      -18.4152         2.000       
      15      -18.9959         2.000       
      14      -19.8208         2.000       
      13      -20.7017         2.000       
      12      -25.8043         2.000       
      11     -269.7507         2.000       
      10     -269.8780         2.000       
       9     -270.0220         2.000       
       8     -270.1588         2.000       
       7     -270.2176         2.000       
       6     -270.2215         2.000       
       5     -270.3704         2.000       
       4     -270.6702         2.000       
       3     -270.9750         2.000       
       2     -272.2808         2.000       
       1     -511.0730         2.000       

AMS application finished. Exiting.
NORMAL TERMINATION
     Total cpu time:     101.70
  Total system time:       0.39
 Total elapsed time:     102.71
NORMAL TERMINATION
