srun: Step created for StepId=663091.89

 *******************************************************************************
 *                                                                             *
 *  --------------------------------                                           *
 *   Amsterdam Modeling Suite (AMS)              2026.103                      *
 *  --------------------------------                                           *
 *                                               r260501 2026-05-01 873454b5   *
 *                                                                             *
 *                                                                             *
 *                              =================                              *
 *                              |               |                              *
 *                              |     A M S     |                              *
 *                              |               |                              *
 *                              =================                              *
 *                                                                             *
 *                                                                             *
 *   Online information and documentation:  https://www.scm.com/support/       *
 *   E-mail:  support@scm.com   info@scm.com                                   *
 *                                                                             *
 *   Scientific publications using AMS results must be properly referenced     *
 *   See the User Manuals (or the web site) for recommended citations          *
 *   The terms and conditions of the End User License Agreement apply to       *
 *   the use of AMS, https://www.scm.com/license-terms/                        *
 *                                                                             *
 **********************  x86_64_linux_intel / intelmpi  ************************
 
 Licensed to: Jong-June Jeon / University of Seoul 2026-06-02 13:44:15
 SCM User ID: u30731
  
 AMS 2026.103  RunTime: Jun04-2026 06:41:48  ShM Nodes: 1  Procs: 1

 AMS jobname: c5_fragB_opt
 AMS jobid  : 1494560891

 Start   directory: /gpfs/home1/yeseo1ee/projects/eda-asm-prediction/ADF_800/adf_outputs/batch_006/qmrxn20_sn2_B_E_C_C_A_A/
 Results directory: /gpfs/home1/yeseo1ee/projects/eda-asm-prediction/ADF_800/adf_outputs/batch_006/qmrxn20_sn2_B_E_C_C_A_A/c5_fragB_opt.results/
 Scratch directory: /tmp/amstmp_c5_fragB_opt_kid0.1494560891/

 RNG seed: 1389988517 -1237793490 -745821345 -1887815314 1853983342 129861127 720983324 879826043



                      ************************************************************************
                      *  ADF 2026.103  RunTime: Jun04-2026 06:41:48  ShM Nodes: 1  Procs: 1  *
                      ************************************************************************
  

       ***************************
       *  GEOMETRY OPTIMIZATION  *
       ***************************

Optimization Method                    Quasi Newton
Optimization Coordinates               Delocalized Coordinates
Optimize lattice                       F
 
 ------------------------------------------------------
 Convergence criteria (Hartree,Angstrom)
 ------------------------------------------------------
 Maximum gradient               0.000100000000
 Maximum rms gradient           0.000066666667
 Maximum step allowed           0.010000000000
 Maximum rms step allowed       0.006666666667
 Maximum energy change allowe   0.000140000000
 Maximum stress energy allowe   0.000500000000
 
Initial model Hessian                  Automatic Hessian
 
------------------------------------
Quasi-Newton Optimizer Parameters
------------------------------------
Hessian Update Method                  BFGS
Maximum number of steps                  200
First GDIIS cycle                          0
Maximum GDIIS vectors                      0
Trust radius (bohr)                        0.200000
Trust radius varies                        T
Constraints converged at all steps         T
Use projector                              T
 
 Rigid motions settings for: old optimizer
 Atomic rotations (x,y,z):     T T T
 Atomic translations (x,y,z):  T T T
 Tolerance:                  1.000000000000000E-006

--------
Geometry
--------
Formula: C4H3FN4O2
Atoms
  Index Symbol   x (angstrom)   y (angstrom)   z (angstrom)
      1      C     0.38502968    -0.11158030    -0.10936233
      2      H     1.46415337     1.56559971    -0.83663225
      3      F    -0.95284657    -0.28563065    -0.88752733
      4      C     0.58650903     1.41055098    -0.20636205
      5      N     1.21533624    -0.89051273    -1.07738679
      6      O     1.64030304    -0.30764088    -2.07946022
      7      O     1.26793173    -2.10928560    -0.90014123
      8      N    -0.02691770    -0.70479984     1.10708811
      9      H     0.78429543    -1.02875099     1.60761412
     10      H    -0.64556543    -1.47203784     0.87611389
     11      C     0.84862351     2.00174146     1.10765855
     12      N     1.00024821     2.58792371     2.11471032
     13      C    -0.54458102     2.14386114    -0.82798052
     14      N    -1.36589052     2.81091664    -1.33786283

Total System Charge              0.00000


----------------
ADF Engine Input
----------------
 
   Basis
     Type TZ2P
     Core None
   End
   XC
     GGA BLYP
     Dispersion GRIMME3 BJDAMP
   End
   Symmetry NOSYM
   NumericalQuality Normal
   Unrestricted No
   SCF
     Iterations 200
     Converge 1.0e-6
   End
   Save TAPE21
 

 Title: *** (NO TITLE) ***

Challenging geometry: could not add a dihedral for atom   12
Challenging geometry: could not add a dihedral for atom   14
 Using automatic Hessian for delocalized coordinates.
 *** GO1_GOStep1 ***

 Energy gradients wrt nuclear displacements
 ==========================================

     Atom      Cartesian (a.u./angstrom)
                 X         Y         Z
 ----------------------------------------
     1 C     0.191779  0.000969  0.015784
     2 H    -0.007071 -0.006668  0.008773
     3 F    -0.054435 -0.001885 -0.013127
     4 C    -0.018035 -0.019906 -0.014815
     5 N    -0.030756  0.049866  0.053801
     6 O    -0.011312 -0.022334 -0.000857
     7 O    -0.005080  0.009029 -0.019846
     8 N    -0.039433 -0.035097  0.013896
     9 H    -0.013180  0.011705 -0.027982
    10 H     0.001621  0.015897 -0.001815
    11 C    -0.009056 -0.044077 -0.063886
    12 N     0.003140  0.036020  0.049191
    13 C     0.033538 -0.027459  0.028466
    14 N    -0.041719  0.033940 -0.027583
 ----------------------------------------
 
----------------------------------------------------------------------
Geometry Convergence after Step   1       (Hartree/Angstrom,Angstrom)
----------------------------------------------------------------------
current energy                               -3.22833191 Hartree
energy change                      -3.22833191     0.00014000    F
constrained gradient max            0.19177479     0.00010000    F
constrained gradient rms            0.04060377     0.00006667    F
gradient max                        0.19177359
gradient rms                        0.04060377
cart. step max                      0.06446534     0.01000000    F
cart. step rms                      0.02120051     0.00666667    F
 

--------
Geometry
--------
Formula: C4H3FN4O2
Atoms
  Index Symbol   x (angstrom)   y (angstrom)   z (angstrom)
      1      C     0.34729959    -0.11326172    -0.13277351
      2      H     1.44873820     1.58338942    -0.84548648
      3      F    -0.95457199    -0.31305733    -0.91942711
      4      C     0.56660786     1.42080378    -0.21481121
      5      N     1.21386382    -0.90890030    -1.09864344
      6      O     1.66128131    -0.30987309    -2.08762710
      7      O     1.29909194    -2.12344686    -0.87912934
      8      N    -0.02883954    -0.68168374     1.10493205
      9      H     0.78664717    -0.98399738     1.63434449
     10      H    -0.63913237    -1.47235947     0.91152395
     11      C     0.84092991     1.98795390     1.11512812
     12      N     1.02178541     2.52345837     2.12082258
     13      C    -0.55371614     2.16648012    -0.83238547
     14      N    -1.35335619     2.83484910    -1.32599809

Total System Charge              0.00000

 *** GO1_GOStep2 ***

 Energy gradients wrt nuclear displacements
 ==========================================

     Atom      Cartesian (a.u./angstrom)
                 X         Y         Z
 ----------------------------------------
     1 C     0.166353  0.003538  0.019923
     2 H    -0.002685 -0.003337  0.004750
     3 F    -0.051414 -0.006398 -0.020502
     4 C    -0.021854 -0.012069 -0.013516
     5 N    -0.035053  0.035045  0.035948
     6 O    -0.003267 -0.004120 -0.009361
     7 O    -0.003144 -0.007557 -0.006965
     8 N    -0.035746 -0.017111  0.011748
     9 H    -0.001396  0.000923 -0.013311
    10 H    -0.002304  0.009331 -0.002538
    11 C     0.004214  0.001595  0.018205
    12 N    -0.008067 -0.006299 -0.024297
    13 C    -0.023824  0.019923 -0.009865
    14 N     0.018189 -0.013464  0.009779
 ----------------------------------------

 dE(predicted):    -0.10086E-01, dE(actual):    -0.10233E-01, Trust radius:    0.400000, all in a.u.
 
----------------------------------------------------------------------
Geometry Convergence after Step   2       (Hartree/Angstrom,Angstrom)
----------------------------------------------------------------------
current energy                               -3.23856530 Hartree
energy change                      -0.01023339     0.00014000    F
constrained gradient max            0.16635196     0.00010000    F
constrained gradient rms            0.03113638     0.00006667    F
gradient max                        0.16635038
gradient rms                        0.03113638
cart. step max                      0.11542678     0.01000000    F
cart. step rms                      0.03965765     0.00666667    F
 

--------
Geometry
--------
Formula: C4H3FN4O2
Atoms
  Index Symbol   x (angstrom)   y (angstrom)   z (angstrom)
      1      C     0.25506275    -0.11694852    -0.17613582
      2      H     1.42289308     1.58575680    -0.86143391
      3      F    -0.97499882    -0.34855593    -0.96659951
      4      C     0.53329124     1.42838914    -0.22896604
      5      N     1.21817526    -0.92502249    -1.11762891
      6      O     1.70829264    -0.30604759    -2.07297934
      7      O     1.36124139    -2.11939153    -0.83636947
      8      N    -0.04475756    -0.64670520     1.09048366
      9      H     0.78380665    -0.88422345     1.65324811
     10      H    -0.61736858    -1.48587389     0.96597329
     11      C     0.83947502     1.95110367     1.12205409
     12      N     1.10161905     2.40803159     2.15451603
     13      C    -0.56518901     2.19627009    -0.84133158
     14      N    -1.36491411     2.87357212    -1.33436119

Total System Charge              0.00000

 *** GO1_GOStep3 ***

 Energy gradients wrt nuclear displacements
 ==========================================

     Atom      Cartesian (a.u./angstrom)
                 X         Y         Z
 ----------------------------------------
     1 C     0.110108  0.001868  0.019020
     2 H     0.002534  0.000841  0.000159
     3 F    -0.041631 -0.010653 -0.026914
     4 C    -0.020970 -0.003040 -0.010566
     5 N    -0.030884  0.011439  0.008632
     6 O     0.000698  0.007697 -0.005789
     7 O    -0.001190 -0.008390  0.004117
     8 N    -0.019413  0.007898  0.006463
     9 H     0.008533 -0.009617  0.003132
    10 H    -0.005432  0.000853 -0.002508
    11 C     0.000551 -0.002773  0.008666
    12 N    -0.002017  0.002006 -0.003180
    13 C    -0.004925  0.002646 -0.002748
    14 N     0.004038 -0.000774  0.001515
 ----------------------------------------

 dE(predicted):    -0.12172E-01, dE(actual):    -0.12750E-01, Trust radius:    0.800000, all in a.u.
 
----------------------------------------------------------------------
Geometry Convergence after Step   3       (Hartree/Angstrom,Angstrom)
----------------------------------------------------------------------
current energy                               -3.25131555 Hartree
energy change                      -0.01275025     0.00014000    F
constrained gradient max            0.11010698     0.00010000    F
constrained gradient rms            0.02059868     0.00006667    F
gradient max                        0.11010564
gradient rms                        0.02059868
cart. step max                      0.21035567     0.01000000    F
cart. step rms                      0.06493402     0.00666667    F
 

--------
Geometry
--------
Formula: C4H3FN4O2
Atoms
  Index Symbol   x (angstrom)   y (angstrom)   z (angstrom)
      1      C     0.10671708    -0.12133511    -0.23753092
      2      H     1.38047646     1.55717794    -0.88909813
      3      F    -1.00195361    -0.37596090    -1.01690696
      4      C     0.48954793     1.42827570    -0.24339659
      5      N     1.28021835    -0.91184904    -1.08134883
      6      O     1.77215945    -0.30197793    -2.03589719
      7      O     1.42581166    -2.09523580    -0.78197394
      8      N    -0.10652502    -0.61014682     1.04581003
      9      H     0.72220158    -0.67386778     1.66033345
     10      H    -0.54354217    -1.53990042     1.00527575
     11      C     0.86385153     1.89065698     1.11903957
     12      N     1.23930099     2.23104620     2.15344221
     13      C    -0.58027959     2.23768620    -0.83087353
     14      N    -1.39135563     2.89578560    -1.31640549

Total System Charge              0.00000

 *** GO1_GOStep4 ***

 Energy gradients wrt nuclear displacements
 ==========================================

     Atom      Cartesian (a.u./angstrom)
                 X         Y         Z
 ----------------------------------------
     1 C    -0.002257 -0.022340 -0.019955
     2 H     0.007400  0.003851 -0.002749
     3 F    -0.006983 -0.003586 -0.001429
     4 C    -0.012132  0.001072 -0.003389
     5 N     0.020308  0.006716  0.020349
     6 O    -0.012915  0.002353 -0.002876
     7 O    -0.011303  0.000151 -0.003477
     8 N     0.002594  0.035104 -0.013842
     9 H     0.013626 -0.012671  0.014761
    10 H    -0.004043 -0.007645 -0.000746
    11 C     0.011219  0.011646  0.045202
    12 N    -0.009923 -0.009254 -0.030248
    13 C    -0.018434  0.011936 -0.014820
    14 N     0.022844 -0.017331  0.013218
 ----------------------------------------

 dE(predicted):    -0.12175E-01, dE(actual):    -0.88792E-02, Trust radius:    0.800000, all in a.u.
 
----------------------------------------------------------------------
Geometry Convergence after Step   4       (Hartree/Angstrom,Angstrom)
----------------------------------------------------------------------
current energy                               -3.26019476 Hartree
energy change                      -0.00887921     0.00014000    F
constrained gradient max            0.04524081     0.00010000    F
constrained gradient rms            0.01509313     0.00006667    F
gradient max                        0.04524073
gradient rms                        0.01509313
cart. step max                      0.21184443     0.01000000    F
cart. step rms                      0.08826747     0.00666667    F
 

--------
Geometry
--------
Formula: C4H3FN4O2
Atoms
  Index Symbol   x (angstrom)   y (angstrom)   z (angstrom)
      1      C     0.01600062    -0.12709999    -0.27784357
      2      H     1.29927665     1.50532861    -0.99193079
      3      F    -1.04003746    -0.35050619    -1.06352202
      4      C     0.46041974     1.41182401    -0.28028002
      5      N     1.26090774    -0.92062398    -1.08037402
      6      O     1.95329368    -0.25204243    -1.84982473
      7      O     1.55262348    -2.01894269    -0.61910647
      8      N    -0.21145686    -0.64131758     0.98923975
      9      H     0.56709389    -0.56305040     1.64531422
     10      H    -0.51709514    -1.61795124     0.95293414
     11      C     0.96652054     1.84565628     1.04016930
     12      N     1.45114542     2.14510126     2.05268753
     13      C    -0.62324786     2.26622582    -0.77126523
     14      N    -1.47881545     2.92775334    -1.19572865

Total System Charge              0.00000

 *** GO1_GOStep5 ***

 Energy gradients wrt nuclear displacements
 ==========================================

     Atom      Cartesian (a.u./angstrom)
                 X         Y         Z
 ----------------------------------------
     1 C    -0.027909 -0.021413 -0.031442
     2 H     0.004864  0.003590 -0.000239
     3 F     0.035963  0.004435  0.032255
     4 C    -0.001513 -0.000843 -0.005259
     5 N    -0.032966 -0.017386 -0.037351
     6 O     0.001269  0.001573  0.027862
     7 O     0.008988  0.024696  0.009393
     8 N     0.001793  0.015860 -0.005505
     9 H     0.001942 -0.008417  0.002612
    10 H     0.000458 -0.003962  0.001250
    11 C    -0.003342  0.003000  0.004403
    12 N     0.004527  0.002068  0.004215
    13 C     0.013045 -0.007706  0.001549
    14 N    -0.007118  0.004505 -0.003743
 ----------------------------------------

 dE(predicted):    -0.59606E-02, dE(actual):     0.38237E-03, Trust radius:    0.187645, all in a.u.
 
----------------------------------------------------------------------
Geometry Convergence after Step   5       (Hartree/Angstrom,Angstrom)
----------------------------------------------------------------------
current energy                               -3.25981239 Hartree
energy change                       0.00038237     0.00014000    F
constrained gradient max            0.03737550     0.00010000    F
constrained gradient rms            0.01525415     0.00006667    F
gradient max                        0.03737558
gradient rms                        0.01525415
cart. step max                      0.04813009     0.01000000    F
cart. step rms                      0.01803855     0.00666667    F
 

--------
Geometry
--------
Formula: C4H3FN4O2
Atoms
  Index Symbol   x (angstrom)   y (angstrom)   z (angstrom)
      1      C     0.04104156    -0.11931802    -0.27193671
      2      H     1.29753327     1.51658216    -0.98674230
      3      F    -1.02584147    -0.34784690    -1.09383986
      4      C     0.46158483     1.42046672    -0.27586254
      5      N     1.28266872    -0.92591275    -1.06202850
      6      O     1.95772602    -0.30017252    -1.89004728
      7      O     1.52102870    -2.06134736    -0.64537898
      8      N    -0.20322431    -0.63714387     0.99507142
      9      H     0.56622681    -0.53993225     1.65592884
     10      H    -0.49977931    -1.61409465     0.95441119
     11      C     0.95863375     1.85221593     1.04344304
     12      N     1.41962264     2.15917842     2.06546510
     13      C    -0.63232720     2.27101012    -0.76102602
     14      N    -1.48826502     2.93666980    -1.17698798

Total System Charge              0.00000

 *** GO1_GOStep6 ***

 Energy gradients wrt nuclear displacements
 ==========================================

     Atom      Cartesian (a.u./angstrom)
                 X         Y         Z
 ----------------------------------------
     1 C    -0.003050 -0.013041 -0.018017
     2 H     0.001919  0.001997  0.002612
     3 F     0.003331  0.000899  0.006957
     4 C     0.000177  0.003673 -0.001533
     5 N    -0.031080  0.001169 -0.010651
     6 O     0.010492  0.001072  0.005633
     7 O     0.010746  0.002084  0.006223
     8 N     0.005067  0.008578  0.006722
     9 H     0.000250 -0.006937 -0.000559
    10 H    -0.000170 -0.000883  0.000868
    11 C    -0.005760 -0.001379 -0.003514
    12 N     0.004754  0.003474  0.007510
    13 C     0.009404 -0.004777  0.001200
    14 N    -0.006080  0.004072 -0.003451
 ----------------------------------------

 dE(predicted):    -0.39730E-02, dE(actual):    -0.39520E-02, Trust radius:    0.375290, all in a.u.
 
----------------------------------------------------------------------
Geometry Convergence after Step   6       (Hartree/Angstrom,Angstrom)
----------------------------------------------------------------------
current energy                               -3.26376443 Hartree
energy change                      -0.00395204     0.00014000    F
constrained gradient max            0.03106360     0.00010000    F
constrained gradient rms            0.00769660     0.00006667    F
gradient max                        0.03106590
gradient rms                        0.00769660
cart. step max                      0.11480373     0.01000000    F
cart. step rms                      0.03774332     0.00666667    F
 

--------
Geometry
--------
Formula: C4H3FN4O2
Atoms
  Index Symbol   x (angstrom)   y (angstrom)   z (angstrom)
      1      C     0.06208474    -0.11351447    -0.26669958
      2      H     1.27041147     1.52420203    -1.02268756
      3      F    -0.95293716    -0.36092215    -1.14754791
      4      C     0.46055908     1.42834227    -0.28169485
      5      N     1.33585866    -0.92941307    -1.02820583
      6      O     1.98785134    -0.31561038    -1.88236194
      7      O     1.49062356    -2.09843459    -0.67044956
      8      N    -0.24675994    -0.63504518     0.98127283
      9      H     0.45142308    -0.46125166     1.70432008
     10      H    -0.48040389    -1.62833164     0.93854733
     11      C     0.99703721     1.85512172     1.02033096
     12      N     1.47611597     2.14812936     2.03423981
     13      C    -0.66208633     2.26625682    -0.72598771
     14      N    -1.53314879     2.93082576    -1.10260663

Total System Charge              0.00000

 *** GO1_GOStep7 ***

 Energy gradients wrt nuclear displacements
 ==========================================

     Atom      Cartesian (a.u./angstrom)
                 X         Y         Z
 ----------------------------------------
     1 C    -0.005310 -0.010845 -0.014593
     2 H     0.001557  0.001080  0.002469
     3 F     0.006395  0.001281  0.009817
     4 C     0.001504  0.008440 -0.001481
     5 N    -0.005630  0.003811  0.001364
     6 O     0.002021  0.003580 -0.003640
     7 O     0.000519 -0.005403  0.002938
     8 N    -0.001869  0.002559  0.003428
     9 H     0.002005 -0.004439  0.000585
    10 H    -0.000595 -0.000997  0.000837
    11 C    -0.000950  0.001525  0.006955
    12 N    -0.000917 -0.000305 -0.005290
    13 C    -0.001313  0.001333 -0.003852
    14 N     0.002583 -0.001621  0.000463
 ----------------------------------------

 dE(predicted):    -0.24531E-02, dE(actual):    -0.27364E-02, Trust radius:    0.750579, all in a.u.
 
----------------------------------------------------------------------
Geometry Convergence after Step   7       (Hartree/Angstrom,Angstrom)
----------------------------------------------------------------------
current energy                               -3.26650083 Hartree
energy change                      -0.00273640     0.00014000    F
constrained gradient max            0.01461042     0.00010000    F
constrained gradient rms            0.00451306     0.00006667    F
gradient max                        0.01461032
gradient rms                        0.00451306
cart. step max                      0.20961647     0.01000000    F
cart. step rms                      0.07975856     0.00666667    F
 

--------
Geometry
--------
Formula: C4H3FN4O2
Atoms
  Index Symbol   x (angstrom)   y (angstrom)   z (angstrom)
      1      C     0.06052301    -0.11006306    -0.29865602
      2      H     1.18694853     1.52317711    -1.12415987
      3      F    -0.87814262    -0.38346160    -1.26982109
      4      C     0.44601221     1.42409872    -0.31619525
      5      N     1.40326796    -0.93416180    -0.95847950
      6      O     2.10832087    -0.33587279    -1.77765027
      7      O     1.50247227    -2.11092630    -0.61423501
      8      N    -0.32714666    -0.61808335     0.92791547
      9      H     0.24180661    -0.30414068     1.70986530
     10      H    -0.44468635    -1.62991309     0.91853802
     11      C     1.08873410     1.81262933     0.94271460
     12      N     1.61100004     2.07188081     1.94653920
     13      C    -0.71802143     2.26782488    -0.63172003
     14      N    -1.62445953     2.93736661    -0.90418609

Total System Charge              0.00000

 *** GO1_GOStep8 ***

 Energy gradients wrt nuclear displacements
 ==========================================

     Atom      Cartesian (a.u./angstrom)
                 X         Y         Z
 ----------------------------------------
     1 C    -0.003236 -0.005664 -0.007593
     2 H    -0.000007 -0.000924  0.003050
     3 F    -0.001484 -0.000759  0.002009
     4 C     0.006264  0.010952  0.003048
     5 N     0.005623  0.004055  0.007896
     6 O    -0.000722 -0.001909 -0.004350
     7 O    -0.001472 -0.002145 -0.003403
     8 N    -0.000289 -0.004183  0.009335
     9 H    -0.000524 -0.000620 -0.003506
    10 H     0.000106  0.002305 -0.000533
    11 C    -0.005124 -0.002908 -0.004896
    12 N     0.001449  0.001129  0.001336
    13 C     0.000339  0.000192 -0.001891
    14 N    -0.000924  0.000477 -0.000502
 ----------------------------------------

 dE(predicted):    -0.19538E-02, dE(actual):    -0.20160E-02, Trust radius:    1.000000, all in a.u.
 
----------------------------------------------------------------------
Geometry Convergence after Step   8       (Hartree/Angstrom,Angstrom)
----------------------------------------------------------------------
current energy                               -3.26851680 Hartree
energy change                      -0.00201596     0.00014000    F
constrained gradient max            0.01096290     0.00010000    F
constrained gradient rms            0.00387155     0.00006667    F
gradient max                        0.01096283
gradient rms                        0.00387155
cart. step max                      0.21112671     0.01000000    F
cart. step rms                      0.07931484     0.00666667    F
 

--------
Geometry
--------
Formula: C4H3FN4O2
Atoms
  Index Symbol   x (angstrom)   y (angstrom)   z (angstrom)
      1      C     0.06411393    -0.10735943    -0.32937255
      2      H     1.09240178     1.53512546    -1.22418358
      3      F    -0.79519740    -0.39183355    -1.37714440
      4      C     0.43199478     1.41941104    -0.35056826
      5      N     1.45601248    -0.93919859    -0.88932045
      6      O     2.22376903    -0.34442154    -1.65185111
      7      O     1.52927812    -2.11252480    -0.52734517
      8      N    -0.40662877    -0.60737002     0.86479761
      9      H     0.04043052    -0.21391035     1.68862280
     10      H    -0.45712453    -1.62448856     0.88624321
     11      C     1.18362289     1.78750948     0.85265881
     12      N     1.75996303     2.02872320     1.83082876
     13      C    -0.76655762     2.25589853    -0.52983686
     14      N    -1.69944923     2.92479395    -0.69305938

Total System Charge              0.00000

 *** GO1_GOStep9 ***

 Energy gradients wrt nuclear displacements
 ==========================================

     Atom      Cartesian (a.u./angstrom)
                 X         Y         Z
 ----------------------------------------
     1 C    -0.003544 -0.000889  0.002711
     2 H    -0.000088 -0.001829  0.001152
     3 F    -0.001257 -0.000792 -0.000443
     4 C     0.004415  0.010468  0.004468
     5 N     0.005054  0.000670  0.004234
     6 O     0.001321 -0.001553 -0.004207
     7 O    -0.000623 -0.002122 -0.003198
     8 N    -0.000265 -0.005837  0.006436
     9 H    -0.000867  0.001504 -0.004018
    10 H     0.000064  0.002004 -0.001009
    11 C    -0.003711 -0.002344 -0.007067
    12 N     0.000396  0.000759  0.001849
    13 C     0.000117 -0.000753  0.000054
    14 N    -0.001012  0.000715 -0.000961
 ----------------------------------------

 dE(predicted):    -0.86897E-03, dE(actual):    -0.10269E-02, Trust radius:    1.000000, all in a.u.
 
----------------------------------------------------------------------
Geometry Convergence after Step   9       (Hartree/Angstrom,Angstrom)
----------------------------------------------------------------------
current energy                               -3.26954370 Hartree
energy change                      -0.00102690     0.00014000    F
constrained gradient max            0.01048050     0.00010000    F
constrained gradient rms            0.00321282     0.00006667    F
gradient max                        0.01048069
gradient rms                        0.00321282
cart. step max                      0.21146663     0.01000000    F
cart. step rms                      0.07848543     0.00666667    F
 

--------
Geometry
--------
Formula: C4H3FN4O2
Atoms
  Index Symbol   x (angstrom)   y (angstrom)   z (angstrom)
      1      C     0.06161996    -0.10748200    -0.36896166
      2      H     0.99653490     1.55467383    -1.31328226
      3      F    -0.72308794    -0.40594795    -1.47716004
      4      C     0.41506544     1.40991203    -0.38893545
      5      N     1.49885386    -0.92985034    -0.80901305
      6      O     2.31516421    -0.33267654    -1.51375743
      7      O     1.57035260    -2.08664418    -0.39853653
      8      N    -0.48052344    -0.59545495     0.79471679
      9      H    -0.12463578    -0.16142806     1.64329359
     10      H    -0.50024264    -1.61335243     0.84345532
     11      C     1.26405178     1.75641213     0.75848802
     12      N     1.91532730     1.97895855     1.69249157
     13      C    -0.80152074     2.23939695    -0.43073667
     14      N    -1.75033052     2.90383778    -0.48159275

Total System Charge              0.00000

 *** GO1_GOStep10 ***

 Energy gradients wrt nuclear displacements
 ==========================================

     Atom      Cartesian (a.u./angstrom)
                 X         Y         Z
 ----------------------------------------
     1 C    -0.005707  0.003789  0.009041
     2 H     0.000701 -0.002250 -0.000902
     3 F    -0.002019 -0.000575 -0.003653
     4 C     0.002650  0.003342  0.002055
     5 N     0.006769 -0.001991 -0.000387
     6 O     0.000185 -0.000814 -0.000314
     7 O    -0.000465  0.000081 -0.001514
     8 N     0.001722 -0.003254  0.001189
     9 H    -0.000576  0.002759 -0.002048
    10 H    -0.000126  0.000741 -0.000847
    11 C    -0.002951 -0.001643 -0.005426
    12 N     0.000328  0.000308  0.001759
    13 C    -0.000772 -0.000994  0.002389
    14 N     0.000263  0.000501 -0.001342
 ----------------------------------------

 dE(predicted):    -0.53258E-03, dE(actual):    -0.44048E-03, Trust radius:    1.000000, all in a.u.
 
----------------------------------------------------------------------
Geometry Convergence after Step  10       (Hartree/Angstrom,Angstrom)
----------------------------------------------------------------------
current energy                               -3.26998418 Hartree
energy change                      -0.00044048     0.00014000    F
constrained gradient max            0.00899477     0.00010000    F
constrained gradient rms            0.00271709     0.00006667    F
gradient max                        0.00899426
gradient rms                        0.00271709
cart. step max                      0.20138334     0.01000000    F
cart. step rms                      0.07419138     0.00666667    F
 

--------
Geometry
--------
Formula: C4H3FN4O2
Atoms
  Index Symbol   x (angstrom)   y (angstrom)   z (angstrom)
      1      C     0.13263976    -0.07984238    -0.33826334
      2      H     0.98906338     1.61965207    -1.30209549
      3      F    -0.67148947    -0.25009208    -1.45651231
      4      C     0.41497078     1.45283591    -0.37729522
      5      N     1.48804937    -1.01761992    -0.79327985
      6      O     2.34837288    -0.48730999    -1.49933223
      7      O     1.46788252    -2.17684670    -0.38300132
      8      N    -0.48674477    -0.55569945     0.79260237
      9      H     0.06317995    -0.36281141     1.62684737
     10      H    -0.56563527    -1.57123498     0.74827227
     11      C     1.24635436     1.85855903     0.76616693
     12      N     1.89430232     2.12672923     1.69006277
     13      C    -0.83966240     2.22239900    -0.43228605
     14      N    -1.82465442     2.83163649    -0.49141647

Total System Charge              0.00000

 *** GO1_GOStep11 ***

 Energy gradients wrt nuclear displacements
 ==========================================

     Atom      Cartesian (a.u./angstrom)
                 X         Y         Z
 ----------------------------------------
     1 C     0.021302 -0.016988  0.034373
     2 H     0.000196 -0.001449 -0.000492
     3 F     0.005919  0.026142  0.009231
     4 C    -0.029100  0.002598 -0.012635
     5 N    -0.003893 -0.016240 -0.000592
     6 O     0.006179 -0.002203 -0.002703
     7 O     0.003005 -0.002125 -0.001544
     8 N    -0.008798  0.014318 -0.015748
     9 H    -0.000035 -0.012756 -0.010565
    10 H     0.008961  0.008926  0.004642
    11 C    -0.003221 -0.003787 -0.004207
    12 N    -0.000116  0.000890  0.000520
    13 C     0.001825  0.002508  0.001057
    14 N    -0.002225  0.000167 -0.001338
 ----------------------------------------

 dE(predicted):    -0.92922E-03, dE(actual):     0.49610E-02, Trust radius:    0.165756, all in a.u.
 
----------------------------------------------------------------------
Geometry Convergence after Step  11       (Hartree/Angstrom,Angstrom)
----------------------------------------------------------------------
current energy                               -3.26502313 Hartree
energy change                       0.00496105     0.00014000    F
constrained gradient max            0.03435017     0.00010000    F
constrained gradient rms            0.01105800     0.00006667    F
gradient max                        0.03434988
gradient rms                        0.01105800
cart. step max                      0.08500550     0.01000000    F
cart. step rms                      0.02945879     0.00666667    F
 

--------
Geometry
--------
Formula: C4H3FN4O2
Atoms
  Index Symbol   x (angstrom)   y (angstrom)   z (angstrom)
      1      C     0.10563540    -0.09236260    -0.34473821
      2      H     0.99870121     1.58924936    -1.30578415
      3      F    -0.69835078    -0.33509758    -1.46110506
      4      C     0.41995897     1.43419645    -0.38198538
      5      N     1.49202283    -0.97021538    -0.79604848
      6      O     2.32260832    -0.40574036    -1.50873156
      7      O     1.51938120    -2.12715024    -0.38168296
      8      N    -0.50231320    -0.56848093     0.79926973
      9      H     0.02187775    -0.32562030     1.63984284
     10      H    -0.58149820    -1.58683980     0.77290819
     11      C     1.25730093     1.82412191     0.76276770
     12      N     1.90747002     2.08190254     1.68869415
     13      C    -0.81949828     2.22767051    -0.43695515
     14      N    -1.78666719     2.86472122    -0.49598221

Total System Charge              0.00000

 *** GO1_GOStep12 ***

 Energy gradients wrt nuclear displacements
 ==========================================

     Atom      Cartesian (a.u./angstrom)
                 X         Y         Z
 ----------------------------------------
     1 C     0.018734 -0.004106  0.028618
     2 H     0.000409 -0.001509 -0.000378
     3 F    -0.003819  0.008270 -0.003679
     4 C    -0.012851  0.004272 -0.005623
     5 N     0.003876 -0.009766 -0.004360
     6 O     0.001007 -0.001675 -0.000253
     7 O     0.000351  0.000316 -0.001159
     8 N    -0.012604  0.008415 -0.008431
     9 H     0.002076 -0.007735 -0.005302
    10 H     0.005280  0.003182  0.003176
    11 C    -0.003209 -0.001573 -0.005317
    12 N     0.000979  0.001051  0.002324
    13 C     0.000972  0.000181  0.001634
    14 N    -0.001198  0.000678 -0.001251
 ----------------------------------------

 dE(predicted):    -0.35363E-02, dE(actual):    -0.35431E-02, Trust radius:    0.331511, all in a.u.
 
----------------------------------------------------------------------
Geometry Convergence after Step  12       (Hartree/Angstrom,Angstrom)
----------------------------------------------------------------------
current energy                               -3.26856626 Hartree
energy change                      -0.00354312     0.00014000    F
constrained gradient max            0.02857539     0.00010000    F
constrained gradient rms            0.00712507     0.00006667    F
gradient max                        0.02857499
gradient rms                        0.00712507
cart. step max                      0.12344643     0.01000000    F
cart. step rms                      0.04722962     0.00666667    F
 

--------
Geometry
--------
Formula: C4H3FN4O2
Atoms
  Index Symbol   x (angstrom)   y (angstrom)   z (angstrom)
      1      C     0.05866647    -0.10732513    -0.37844338
      2      H     0.97264700     1.56211824    -1.33804479
      3      F    -0.70603318    -0.40642771    -1.49416690
      4      C     0.40877104     1.41054476    -0.40391044
      5      N     1.51135086    -0.91292287    -0.77102075
      6      O     2.33324252    -0.31219936    -1.46632305
      7      O     1.59186905    -2.06208719    -0.33977120
      8      N    -0.51808664    -0.57579612     0.78383103
      9      H    -0.07446940    -0.21990131     1.63221803
     10      H    -0.58378307    -1.59575078     0.80515842
     11      C     1.28156342     1.74797867     0.73006085
     12      N     1.95989860     1.95845611     1.64679107
     13      C    -0.81189845     2.23350990    -0.41577442
     14      N    -1.76710922     2.89015761    -0.44013502

Total System Charge              0.00000

 *** GO1_GOStep13 ***

 Energy gradients wrt nuclear displacements
 ==========================================

     Atom      Cartesian (a.u./angstrom)
                 X         Y         Z
 ----------------------------------------
     1 C    -0.004442 -0.002108  0.007481
     2 H     0.001007 -0.002130 -0.001670
     3 F    -0.001276  0.002437 -0.004114
     4 C     0.000629  0.001811 -0.000289
     5 N     0.007247  0.001229  0.000649
     6 O    -0.000241  0.000231 -0.000152
     7 O    -0.000922 -0.000646 -0.001090
     8 N    -0.002914  0.003143 -0.000283
     9 H     0.002522  0.000647  0.001369
    10 H     0.000718 -0.001633 -0.000122
    11 C    -0.001503 -0.002245 -0.002651
    12 N    -0.000344  0.000155 -0.000021
    13 C    -0.000711 -0.001354  0.001711
    14 N     0.000229  0.000464 -0.000818
 ----------------------------------------

 dE(predicted):    -0.17408E-02, dE(actual):    -0.14774E-02, Trust radius:    0.663022, all in a.u.
 
----------------------------------------------------------------------
Geometry Convergence after Step  13       (Hartree/Angstrom,Angstrom)
----------------------------------------------------------------------
current energy                               -3.27004366 Hartree
energy change                      -0.00147741     0.00014000    F
constrained gradient max            0.00743447     0.00010000    F
constrained gradient rms            0.00231206     0.00006667    F
gradient max                        0.00743434
gradient rms                        0.00231206
cart. step max                      0.04290072     0.01000000    F
cart. step rms                      0.01564131     0.00666667    F
 

--------
Geometry
--------
Formula: C4H3FN4O2
Atoms
  Index Symbol   x (angstrom)   y (angstrom)   z (angstrom)
      1      C     0.06276619    -0.10513276    -0.37603367
      2      H     0.99309012     1.57080866    -1.31853218
      3      F    -0.71781756    -0.41519243    -1.47466938
      4      C     0.41445822     1.41588350    -0.39457994
      5      N     1.50237227    -0.92205011    -0.79276606
      6      O     2.31490628    -0.33280361    -1.50922378
      7      O     1.58735547    -2.06755766    -0.35311924
      8      N    -0.49991419    -0.57757480     0.79108193
      9      H    -0.05605207    -0.21898321     1.63659039
     10      H    -0.57391148    -1.59586497     0.81040550
     11      C     1.26745150     1.75801853     0.75308354
     12      N     1.93099551     1.97149003     1.68038412
     13      C    -0.80576175     2.23869756    -0.42937681
     14      N    -1.76330951     2.89061610    -0.47277496

Total System Charge              0.00000

 *** GO1_GOStep14 ***

 Energy gradients wrt nuclear displacements
 ==========================================

     Atom      Cartesian (a.u./angstrom)
                 X         Y         Z
 ----------------------------------------
     1 C    -0.003524  0.001637  0.003304
     2 H     0.000442 -0.001479 -0.000681
     3 F    -0.000577 -0.001184 -0.000111
     4 C     0.001415  0.003322  0.001831
     5 N     0.003872 -0.000475 -0.000566
     6 O     0.000681 -0.000814 -0.000207
     7 O    -0.000024 -0.000294 -0.001105
     8 N    -0.002471  0.000011 -0.000396
     9 H     0.001723  0.001025 -0.000140
    10 H     0.000265 -0.000676 -0.000384
    11 C    -0.002233 -0.000853 -0.003454
    12 N     0.000399  0.000240  0.001245
    13 C    -0.000693 -0.000152  0.001635
    14 N     0.000725 -0.000308 -0.000970
 ----------------------------------------

 dE(predicted):    -0.11512E-03, dE(actual):    -0.16223E-03, Trust radius:    0.663022, all in a.u.
 
----------------------------------------------------------------------
Geometry Convergence after Step  14       (Hartree/Angstrom,Angstrom)
----------------------------------------------------------------------
current energy                               -3.27020589 Hartree
energy change                      -0.00016223     0.00014000    F
constrained gradient max            0.00387690     0.00010000    F
constrained gradient rms            0.00154281     0.00006667    F
gradient max                        0.00387785
gradient rms                        0.00154281
cart. step max                      0.04424121     0.01000000    F
cart. step rms                      0.01556414     0.00666667    F
 

--------
Geometry
--------
Formula: C4H3FN4O2
Atoms
  Index Symbol   x (angstrom)   y (angstrom)   z (angstrom)
      1      C     0.06686604    -0.10449764    -0.38262787
      2      H     0.97503158     1.57861964    -1.33198020
      3      F    -0.69780091    -0.41870772    -1.49475647
      4      C     0.41268935     1.41546358    -0.39982513
      5      N     1.50989893    -0.92344738    -0.77882353
      6      O     2.32711955    -0.33888041    -1.49311479
      7      O     1.59353012    -2.06314362    -0.32491684
      8      N    -0.51139453    -0.57791087     0.77511732
      9      H    -0.09785622    -0.20427603     1.62789136
     10      H    -0.58002901    -1.59539899     0.79980735
     11      C     1.28306438     1.75594393     0.73560661
     12      N     1.95837554     1.96851271     1.65446376
     13      C    -0.81127136     2.23432364    -0.40783838
     14      N    -1.77159445     2.88375399    -0.42853376

Total System Charge              0.00000

 *** GO1_GOStep15 ***

 Energy gradients wrt nuclear displacements
 ==========================================

     Atom      Cartesian (a.u./angstrom)
                 X         Y         Z
 ----------------------------------------
     1 C    -0.002354  0.004733  0.005332
     2 H     0.000403 -0.001339 -0.000467
     3 F    -0.000840 -0.001920 -0.001242
     4 C     0.000837  0.002186  0.001279
     5 N     0.003982 -0.002064 -0.001404
     6 O     0.000393 -0.000794  0.000344
     7 O    -0.000214  0.000412 -0.000887
     8 N    -0.001198 -0.001755  0.000477
     9 H     0.000820  0.001075 -0.001418
    10 H    -0.000109  0.000386 -0.000581
    11 C    -0.001909 -0.000662 -0.003643
    12 N     0.000296  0.000120  0.001105
    13 C     0.000063 -0.000803  0.001918
    14 N    -0.000170  0.000425 -0.000813
 ----------------------------------------

 dE(predicted):    -0.42561E-04, dE(actual):    -0.66019E-05, Trust radius:    0.663022, all in a.u.
 
----------------------------------------------------------------------
Geometry Convergence after Step  15       (Hartree/Angstrom,Angstrom)
----------------------------------------------------------------------
current energy                               -3.27021249 Hartree
energy change                      -0.00000660     0.00014000    T
constrained gradient max            0.00529037     0.00010000    F
constrained gradient rms            0.00174822     0.00006667    F
gradient max                        0.00529003
gradient rms                        0.00174822
cart. step max                      0.01598025     0.01000000    F
cart. step rms                      0.00507609     0.00666667    T
 

--------
Geometry
--------
Formula: C4H3FN4O2
Atoms
  Index Symbol   x (angstrom)   y (angstrom)   z (angstrom)
      1      C     0.06816508    -0.10602113    -0.38451438
      2      H     0.97417493     1.58088422    -1.33182441
      3      F    -0.69474491    -0.41515190    -1.50112158
      4      C     0.41413256     1.41328014    -0.39941787
      5      N     1.51023178    -0.92235840    -0.77741525
      6      O     2.31884310    -0.34066411    -1.50364416
      7      O     1.60311781    -2.05570239    -0.30967707
      8      N    -0.51173538    -0.58005910     0.77182999
      9      H    -0.11383647    -0.19961025     1.62799039
     10      H    -0.58164673    -1.59663798     0.79906799
     11      C     1.28656784     1.75352348     0.73549892
     12      N     1.96528747     1.96636196     1.65165409
     13      C    -0.81031509     2.23213059    -0.40529220
     14      N    -1.77161302     2.88037968    -0.42266501

Total System Charge              0.00000

 *** GO1_GOStep16 ***

 Energy gradients wrt nuclear displacements
 ==========================================

     Atom      Cartesian (a.u./angstrom)
                 X         Y         Z
 ----------------------------------------
     1 C    -0.002248  0.004147  0.005129
     2 H     0.000136 -0.000784 -0.000268
     3 F    -0.001313 -0.001353 -0.002427
     4 C     0.001063  0.000721  0.000479
     5 N     0.004470 -0.002155 -0.001167
     6 O    -0.000128 -0.000243  0.000390
     7 O    -0.000613  0.000426 -0.000611
     8 N     0.000309 -0.002054  0.002198
     9 H    -0.000053  0.000819 -0.001705
    10 H    -0.000327  0.001049 -0.000753
    11 C    -0.001291 -0.000384 -0.002721
    12 N     0.000189  0.000055  0.000732
    13 C     0.000317 -0.000797  0.001402
    14 N    -0.000510  0.000553 -0.000679
 ----------------------------------------

 dE(predicted):    -0.30219E-04, dE(actual):    -0.39064E-04, Trust radius:    0.663022, all in a.u.
 
----------------------------------------------------------------------
Geometry Convergence after Step  16       (Hartree/Angstrom,Angstrom)
----------------------------------------------------------------------
current energy                               -3.27025155 Hartree
energy change                      -0.00003906     0.00014000    T
constrained gradient max            0.00508787     0.00010000    F
constrained gradient rms            0.00165879     0.00006667    F
gradient max                        0.00508760
gradient rms                        0.00165879
cart. step max                      0.03553359     0.01000000    F
cart. step rms                      0.01021788     0.00666667    F
 

--------
Geometry
--------
Formula: C4H3FN4O2
Atoms
  Index Symbol   x (angstrom)   y (angstrom)   z (angstrom)
      1      C     0.07085326    -0.10890763    -0.38733426
      2      H     0.97886574     1.58442251    -1.32600591
      3      F    -0.69295944    -0.40856775    -1.50682702
      4      C     0.41665409     1.41051993    -0.39643163
      5      N     1.50784505    -0.92076197    -0.77950075
      6      O     2.29409226    -0.35100077    -1.53917775
      7      O     1.62522517    -2.03795319    -0.27914434
      8      N    -0.50961597    -0.58364295     0.76758716
      9      H    -0.13051021    -0.19709522     1.62878099
     10      H    -0.58237938    -1.59937988     0.79879960
     11      C     1.28662778     1.74985685     0.74266237
     12      N     1.96803381     1.96301891     1.65668026
     13      C    -0.80788444     2.23016711    -0.40636389
     14      N    -1.76821871     2.87967884    -0.42325539

Total System Charge              0.00000

 *** GO1_GOStep17 ***

 Energy gradients wrt nuclear displacements
 ==========================================

     Atom      Cartesian (a.u./angstrom)
                 X         Y         Z
 ----------------------------------------
     1 C    -0.001725  0.002120  0.003842
     2 H    -0.000206 -0.000012  0.000087
     3 F    -0.001439 -0.000338 -0.002576
     4 C     0.000880 -0.000988 -0.000679
     5 N     0.003309 -0.001503 -0.000545
     6 O    -0.000428  0.000083  0.000325
     7 O    -0.000535  0.000281 -0.000278
     8 N     0.002364 -0.001334  0.002461
     9 H    -0.000996  0.000351 -0.001273
    10 H    -0.000580  0.001212 -0.000643
    11 C    -0.000417 -0.000030 -0.001064
    12 N     0.000269  0.000049  0.000384
    13 C    -0.000332 -0.000208  0.000413
    14 N    -0.000163  0.000316 -0.000455
 ----------------------------------------

 dE(predicted):    -0.47074E-04, dE(actual):    -0.61754E-04, Trust radius:    0.663022, all in a.u.
 
----------------------------------------------------------------------
Geometry Convergence after Step  17       (Hartree/Angstrom,Angstrom)
----------------------------------------------------------------------
current energy                               -3.27031331 Hartree
energy change                      -0.00006175     0.00014000    T
constrained gradient max            0.00380428     0.00010000    F
constrained gradient rms            0.00127207     0.00006667    F
gradient max                        0.00380416
gradient rms                        0.00127207
cart. step max                      0.02394265     0.01000000    F
cart. step rms                      0.00700352     0.00666667    F
 

--------
Geometry
--------
Formula: C4H3FN4O2
Atoms
  Index Symbol   x (angstrom)   y (angstrom)   z (angstrom)
      1      C     0.07254790    -0.11002040    -0.39035112
      2      H     0.98198953     1.58657093    -1.32331266
      3      F    -0.68986809    -0.40540196    -1.51112348
      4      C     0.41819823     1.41002269    -0.39510790
      5      N     1.50605945    -0.91978337    -0.77933675
      6      O     2.27799906    -0.36166269    -1.56232559
      7      O     1.63930989    -2.02450787    -0.25520169
      8      N    -0.51156088    -0.58388402     0.76296029
      9      H    -0.13580309    -0.19812507     1.62642314
     10      H    -0.58382703    -1.59989360     0.79667369
     11      C     1.28667664     1.74797781     0.74646212
     12      N     1.96848746     1.96116876     1.66002624
     13      C    -0.80627666     2.22966616    -0.40546731
     14      N    -1.76730340     2.87822743    -0.41984954

Total System Charge              0.00000

 *** GO1_GOStep18 ***

 Energy gradients wrt nuclear displacements
 ==========================================

     Atom      Cartesian (a.u./angstrom)
                 X         Y         Z
 ----------------------------------------
     1 C    -0.001228  0.000861  0.002744
     2 H    -0.000157  0.000119  0.000075
     3 F    -0.001029  0.000027 -0.001804
     4 C     0.000256 -0.001372 -0.000847
     5 N     0.001760 -0.000770 -0.000087
     6 O    -0.000190  0.000054  0.000067
     7 O    -0.000298  0.000103  0.000088
     8 N     0.002634 -0.000299  0.000887
     9 H    -0.000950  0.000146 -0.000495
    10 H    -0.000569  0.000680 -0.000269
    11 C     0.000184  0.000238 -0.000018
    12 N     0.000038 -0.000003 -0.000084
    13 C    -0.000216 -0.000029  0.000039
    14 N    -0.000235  0.000245 -0.000296
 ----------------------------------------

 dE(predicted):    -0.20741E-04, dE(actual):    -0.22967E-04, Trust radius:    0.663022, all in a.u.
 
----------------------------------------------------------------------
Geometry Convergence after Step  18       (Hartree/Angstrom,Angstrom)
----------------------------------------------------------------------
current energy                               -3.27033628 Hartree
energy change                      -0.00002297     0.00014000    T
constrained gradient max            0.00270722     0.00010000    F
constrained gradient rms            0.00085441     0.00006667    F
gradient max                        0.00270717
gradient rms                        0.00085441
cart. step max                      0.01470320     0.01000000    F
cart. step rms                      0.00455197     0.00666667    T
 

--------
Geometry
--------
Formula: C4H3FN4O2
Atoms
  Index Symbol   x (angstrom)   y (angstrom)   z (angstrom)
      1      C     0.07296605    -0.11042541    -0.39139727
      2      H     0.98727644     1.58644098    -1.31999133
      3      F    -0.69008379    -0.40412413    -1.51029702
      4      C     0.41955841     1.41062753    -0.39378277
      5      N     1.50288393    -0.91922118    -0.78083295
      6      O     2.26622127    -0.36764322    -1.57702879
      7      O     1.64504413    -2.01782880    -0.24569231
      8      N    -0.51367504    -0.58285615     0.76244923
      9      H    -0.12705620    -0.20373649     1.62504458
     10      H    -0.58356883    -1.59968236     0.79640182
     11      C     1.28390673     1.74803693     0.75118941
     12      N     1.96299967     1.96212754     1.66660033
     13      C    -0.80424010     2.23038568    -0.40822692
     14      N    -1.76560367     2.87825389    -0.42396657

Total System Charge              0.00000

 *** GO1_GOStep19 ***

 Energy gradients wrt nuclear displacements
 ==========================================

     Atom      Cartesian (a.u./angstrom)
                 X         Y         Z
 ----------------------------------------
     1 C    -0.000726  0.000009  0.001413
     2 H     0.000014 -0.000004 -0.000065
     3 F    -0.000338  0.000062 -0.000643
     4 C    -0.000162 -0.000785 -0.000501
     5 N     0.000449 -0.000091  0.000003
     6 O    -0.000042 -0.000014 -0.000084
     7 O     0.000007 -0.000152  0.000231
     8 N     0.001466  0.000450 -0.000577
     9 H    -0.000381 -0.000011  0.000231
    10 H    -0.000321  0.000066  0.000216
    11 C     0.000149  0.000278  0.000143
    12 N     0.000060  0.000080 -0.000053
    13 C    -0.000196  0.000137 -0.000095
    14 N     0.000022 -0.000025 -0.000219
 ----------------------------------------

 dE(predicted):    -0.14083E-04, dE(actual):    -0.21017E-04, Trust radius:    0.663022, all in a.u.
 
----------------------------------------------------------------------
Geometry Convergence after Step  19       (Hartree/Angstrom,Angstrom)
----------------------------------------------------------------------
current energy                               -3.27035729 Hartree
energy change                      -0.00002102     0.00014000    T
constrained gradient max            0.00145755     0.00010000    F
constrained gradient rms            0.00041811     0.00006667    F
gradient max                        0.00145750
gradient rms                        0.00041811
cart. step max                      0.00446551     0.01000000    T
cart. step rms                      0.00171382     0.00666667    T
 

--------
Geometry
--------
Formula: C4H3FN4O2
Atoms
  Index Symbol   x (angstrom)   y (angstrom)   z (angstrom)
      1      C     0.07273517    -0.11012247    -0.39288777
      2      H     0.98603004     1.58715286    -1.32158512
      3      F    -0.68843282    -0.40523045    -1.51169433
      4      C     0.41927302     1.41144275    -0.39467649
      5      N     1.50263832    -0.91899561    -0.77845927
      6      O     2.26754962    -0.36867728    -1.57402836
      7      O     1.64396734    -2.01695871    -0.24172936
      8      N    -0.51732031    -0.58150248     0.76070520
      9      H    -0.12442538    -0.20475698     1.62195489
     10      H    -0.58291787    -1.59890105     0.79468534
     11      C     1.28466239     1.74757768     0.74949253
     12      N     1.96415289     1.96129399     1.66466986
     13      C    -0.80468605     2.23047238    -0.40647665
     14      N    -1.76659736     2.87756019    -0.41950105

Total System Charge              0.00000

 *** GO1_GOStep20 ***

 Energy gradients wrt nuclear displacements
 ==========================================

     Atom      Cartesian (a.u./angstrom)
                 X         Y         Z
 ----------------------------------------
     1 C    -0.000409  0.000090  0.000794
     2 H     0.000095 -0.000173 -0.000164
     3 F    -0.000078 -0.000115 -0.000028
     4 C    -0.000224 -0.000140 -0.000069
     5 N     0.000112 -0.000018  0.000025
     6 O     0.000070 -0.000124 -0.000078
     7 O     0.000076 -0.000075  0.000173
     8 N     0.000409  0.000390 -0.000863
     9 H     0.000042  0.000040  0.000233
    10 H    -0.000110 -0.000048  0.000300
    11 C     0.000040  0.000135 -0.000019
    12 N    -0.000015  0.000102 -0.000108
    13 C    -0.000071  0.000012 -0.000051
    14 N     0.000063 -0.000077 -0.000146
 ----------------------------------------

 dE(predicted):    -0.42615E-05, dE(actual):    -0.25796E-05, Trust radius:    0.663022, all in a.u.
 
----------------------------------------------------------------------
Geometry Convergence after Step  20       (Hartree/Angstrom,Angstrom)
----------------------------------------------------------------------
current energy                               -3.27035987 Hartree
energy change                      -0.00000258     0.00014000    T
constrained gradient max            0.00093354     0.00010000    F
constrained gradient rms            0.00022746     0.00006667    F
gradient max                        0.00093358
gradient rms                        0.00022746
cart. step max                      0.00359221     0.01000000    T
cart. step rms                      0.00111252     0.00666667    T
 

--------
Geometry
--------
Formula: C4H3FN4O2
Atoms
  Index Symbol   x (angstrom)   y (angstrom)   z (angstrom)
      1      C     0.07260463    -0.11012549    -0.39345798
      2      H     0.98458843     1.58781346    -1.32260959
      3      F    -0.68743500    -0.40573896    -1.51273576
      4      C     0.41894940     1.41164821    -0.39517189
      5      N     1.50266551    -0.91896182    -0.77703860
      6      O     2.26931623    -0.36803379    -1.57043615
      7      O     1.64257494    -2.01748034    -0.24112696
      8      N    -0.51884342    -0.58145372     0.76010509
      9      H    -0.12520989    -0.20434476     1.62085977
     10      H    -0.58176888    -1.59902970     0.79398315
     11      C     1.28548306     1.74729589     0.74808071
     12      N     1.96597392     1.96084044     1.66257696
     13      C    -0.80513157     2.23045893    -0.40540975
     14      N    -1.76713837     2.87746646    -0.41714956

Total System Charge              0.00000

 *** GO1_GOStep21 ***

 Energy gradients wrt nuclear displacements
 ==========================================

     Atom      Cartesian (a.u./angstrom)
                 X         Y         Z
 ----------------------------------------
     1 C    -0.000249  0.000188  0.000463
     2 H     0.000054 -0.000161 -0.000139
     3 F    -0.000012 -0.000157  0.000023
     4 C    -0.000104  0.000051  0.000018
     5 N     0.000153 -0.000109 -0.000007
     6 O     0.000018 -0.000126 -0.000009
     7 O     0.000056  0.000004  0.000144
     8 N     0.000039  0.000114 -0.000323
     9 H     0.000101  0.000078  0.000076
    10 H    -0.000040  0.000039  0.000208
    11 C    -0.000079  0.000032 -0.000206
    12 N     0.000038  0.000130 -0.000048
    13 C     0.000030 -0.000053 -0.000082
    14 N    -0.000004 -0.000030 -0.000118
 ----------------------------------------

 dE(predicted):    -0.73072E-06, dE(actual):     0.12010E-05, Trust radius:    0.020000, all in a.u.
 
----------------------------------------------------------------------
Geometry Convergence after Step  21       (Hartree/Angstrom,Angstrom)
----------------------------------------------------------------------
current energy                               -3.27035867 Hartree
energy change                       0.00000120     0.00014000    T
constrained gradient max            0.00042728     0.00010000    F
constrained gradient rms            0.00011724     0.00006667    F
gradient max                        0.00042727
gradient rms                        0.00011724
cart. step max                      0.00258094     0.01000000    T
cart. step rms                      0.00083841     0.00666667    T
 

--------
Geometry
--------
Formula: C4H3FN4O2
Atoms
  Index Symbol   x (angstrom)   y (angstrom)   z (angstrom)
      1      C     0.07267239    -0.11023421    -0.39388188
      2      H     0.98361717     1.58848631    -1.32315094
      3      F    -0.68686895    -0.40583508    -1.51349580
      4      C     0.41882931     1.41166280    -0.39540366
      5      N     1.50255243    -0.91905034    -0.77623692
      6      O     2.27052208    -0.36746579    -1.56785521
      7      O     1.64124436    -2.01819091    -0.24130709
      8      N    -0.51949926    -0.58158557     0.75971995
      9      H    -0.12682964    -0.20323925     1.62032099
     10      H    -0.58016933    -1.59927080     0.79381632
     11      C     1.28613594     1.74708009     0.74727969
     12      N     1.96740953     1.96056949     1.66118120
     13      C    -0.80545523     2.23024842    -0.40471170
     14      N    -1.76753181     2.87717965    -0.41580551

Total System Charge              0.00000

 *** GO1_GOStep22 ***

 Energy gradients wrt nuclear displacements
 ==========================================

     Atom      Cartesian (a.u./angstrom)
                 X         Y         Z
 ----------------------------------------
     1 C    -0.000134  0.000175  0.000153
     2 H    -0.000006 -0.000115 -0.000100
     3 F    -0.000012 -0.000140  0.000037
     4 C     0.000014  0.000083  0.000029
     5 N     0.000218 -0.000176  0.000012
     6 O    -0.000041 -0.000101  0.000029
     7 O     0.000019  0.000042  0.000136
     8 N    -0.000104 -0.000045  0.000142
     9 H     0.000077  0.000120 -0.000020
    10 H    -0.000004  0.000103  0.000104
    11 C    -0.000046  0.000007 -0.000174
    12 N     0.000008  0.000122 -0.000114
    13 C     0.000041 -0.000067 -0.000128
    14 N    -0.000031 -0.000008 -0.000107
 ----------------------------------------

 dE(predicted):    -0.33106E-06, dE(actual):     0.10792E-05, Trust radius:    0.020000, all in a.u.
 
----------------------------------------------------------------------
Geometry Convergence after Step  22       (Hartree/Angstrom,Angstrom)
----------------------------------------------------------------------
current energy                               -3.27035759 Hartree
energy change                       0.00000108     0.00014000    T
constrained gradient max            0.00022179     0.00010000    F
constrained gradient rms            0.00007314     0.00006667    F
gradient max                        0.00022179
gradient rms                        0.00007314
cart. step max                      0.00168291     0.01000000    T
cart. step rms                      0.00055988     0.00666667    T
 

--------
Geometry
--------
Formula: C4H3FN4O2
Atoms
  Index Symbol   x (angstrom)   y (angstrom)   z (angstrom)
      1      C     0.07285322    -0.11036737    -0.39405846
      2      H     0.98330212     1.58890271    -1.32322946
      3      F    -0.68670572    -0.40569084    -1.51381063
      4      C     0.41884749     1.41159550    -0.39542666
      5      N     1.50219894    -0.91920404    -0.77607538
      6      O     2.27111305    -0.36706029    -1.56637798
      7      O     1.63990757    -2.01902134    -0.24225775
      8      N    -0.51944719    -0.58180531     0.75962069
      9      H    -0.12806054    -0.20226599     1.62024823
     10      H    -0.57848642    -1.59957373     0.79412761
     11      C     1.28638440     1.74708737     0.74709545
     12      N     1.96797807     1.96073559     1.66072702
     13      C    -0.80558753     2.23005581    -0.40450939
     14      N    -1.76766847     2.87696673    -0.41560384

Total System Charge              0.00000

 *** GO1_GOStep23 ***

 Energy gradients wrt nuclear displacements
 ==========================================

     Atom      Cartesian (a.u./angstrom)
                 X         Y         Z
 ----------------------------------------
     1 C    -0.000062  0.000109 -0.000024
     2 H    -0.000044 -0.000072 -0.000071
     3 F    -0.000015 -0.000105  0.000038
     4 C     0.000074  0.000031 -0.000012
     5 N     0.000201 -0.000185  0.000038
     6 O    -0.000064 -0.000080  0.000040
     7 O    -0.000004  0.000045  0.000137
     8 N    -0.000108 -0.000073  0.000348
     9 H     0.000038  0.000133 -0.000033
    10 H     0.000011  0.000109  0.000064
    11 C    -0.000041  0.000007 -0.000163
    12 N     0.000031  0.000128 -0.000102
    13 C    -0.000012 -0.000023 -0.000148
    14 N    -0.000003 -0.000024 -0.000113
 ----------------------------------------
 
----------------------------------------------------------------------
Geometry Convergence after Step  23       (Hartree/Angstrom,Angstrom)
----------------------------------------------------------------------
current energy                               -3.27035743 Hartree
energy change                       0.00000016     0.00014000    T
constrained gradient max            0.00027497     0.00010000    F
constrained gradient rms            0.00007563     0.00006667    F
gradient max                        0.00027498
gradient rms                        0.00007563
cart. step max                      0.00161308     0.01000000    T
cart. step rms                      0.00052071     0.00666667    T
 

--------
Geometry
--------
Formula: C4H3FN4O2
Atoms
  Index Symbol   x (angstrom)   y (angstrom)   z (angstrom)
      1      C     0.07307365    -0.11048012    -0.39412489
      2      H     0.98330354     1.58907837    -1.32317488
      3      F    -0.68672669    -0.40554963    -1.51389341
      4      C     0.41890882     1.41150642    -0.39540494
      5      N     1.50175375    -0.91933420    -0.77618155
      6      O     2.27156534    -0.36668268    -1.56527056
      7      O     1.63852017    -2.01990473    -0.24360778
      8      N    -0.51909808    -0.58197786     0.75959027
      9      H    -0.12894381    -0.20137409     1.62030501
     10      H    -0.57687333    -1.59981930     0.79468733
     11      C     1.28644477     1.74717737     0.74713326
     12      N     1.96805049     1.96104057     1.66068324
     13      C    -0.80563297     2.22987739    -0.40448134
     14      N    -1.76771663     2.87679730    -0.41579031

Total System Charge              0.00000

 *** GO1_GOStep24 ***

 Energy gradients wrt nuclear displacements
 ==========================================

     Atom      Cartesian (a.u./angstrom)
                 X         Y         Z
 ----------------------------------------
     1 C    -0.000016  0.000037 -0.000072
     2 H    -0.000050 -0.000052 -0.000062
     3 F    -0.000023 -0.000083  0.000052
     4 C     0.000076 -0.000039 -0.000059
     5 N     0.000114 -0.000131  0.000065
     6 O    -0.000054 -0.000077  0.000036
     7 O    -0.000010  0.000021  0.000141
     8 N    -0.000051 -0.000016  0.000301
     9 H     0.000013  0.000128  0.000004
    10 H     0.000018  0.000081  0.000079
    11 C     0.000026  0.000040 -0.000064
    12 N    -0.000005  0.000115 -0.000160
    13 C    -0.000002 -0.000022 -0.000134
    14 N    -0.000035 -0.000001 -0.000127
 ----------------------------------------
 
----------------------------------------------------------------------
Geometry Convergence after Step  24       (Hartree/Angstrom,Angstrom)
----------------------------------------------------------------------
current energy                               -3.27035783 Hartree
energy change                      -0.00000040     0.00014000    T
constrained gradient max            0.00022777     0.00010000    F
constrained gradient rms            0.00005408     0.00006667    T
gradient max                        0.00022779
gradient rms                        0.00005408
cart. step max                      0.00080729     0.01000000    T
cart. step rms                      0.00026084     0.00666667    T
 

--------
Geometry
--------
Formula: C4H3FN4O2
Atoms
  Index Symbol   x (angstrom)   y (angstrom)   z (angstrom)
      1      C     0.07318792    -0.11051446    -0.39411881
      2      H     0.98337293     1.58903145    -1.32317157
      3      F    -0.68672671    -0.40553421    -1.51388916
      4      C     0.41892731     1.41147185    -0.39541594
      5      N     1.50152283    -0.91935509    -0.77627854
      6      O     2.27184328    -0.36645001    -1.56471269
      7      O     1.63778401    -2.02035762    -0.24441506
      8      N    -0.51888074    -0.58201182     0.75955853
      9      H    -0.12924464    -0.20098705     1.62033721
     10      H    -0.57621840    -1.59988305     0.79504632
     11      C     1.28643934     1.74725670     0.74714503
     12      N     1.96798929     1.96122265     1.66073931
     13      C    -0.80564323     2.22979135    -0.40447537
     14      N    -1.76772417     2.87667413    -0.41587981

Total System Charge              0.00000

 *** GO1_GOStep25 ***

 Energy gradients wrt nuclear displacements
 ==========================================

     Atom      Cartesian (a.u./angstrom)
                 X         Y         Z
 ----------------------------------------
     1 C    -0.000011  0.000007 -0.000014
     2 H    -0.000032 -0.000061 -0.000073
     3 F    -0.000017 -0.000082  0.000064
     4 C     0.000036 -0.000064 -0.000080
     5 N     0.000032 -0.000073  0.000070
     6 O    -0.000029 -0.000085  0.000029
     7 O    -0.000005 -0.000003  0.000143
     8 N    -0.000003  0.000045  0.000148
     9 H     0.000013  0.000115  0.000041
    10 H     0.000018  0.000055  0.000120
    11 C    -0.000012  0.000037 -0.000114
    12 N     0.000046  0.000129 -0.000090
    13 C    -0.000073  0.000030 -0.000109
    14 N     0.000039 -0.000052 -0.000135
 ----------------------------------------
 
---------------------------------------------------------
Geometry Convergence after Step  25       ** CONVERGED **
---------------------------------------------------------
current energy                               -3.27035834 Hartree
energy change                      -0.00000051     0.00014000    T
constrained gradient max            0.00007433     0.00010000    T
constrained gradient rms            0.00002675     0.00006667    T
gradient max                        0.00007435
gradient rms                        0.00002675
cart. step max                      0.00022010     0.01000000    T
cart. step rms                      0.00006274     0.00666667    T
 
Geometry optimization converged

Optimized geometry:

--------
Geometry
--------
Formula: C4H3FN4O2
Atoms
  Index Symbol   x (angstrom)   y (angstrom)   z (angstrom)
      1      C     0.07318792    -0.11051446    -0.39411881
      2      H     0.98337293     1.58903145    -1.32317157
      3      F    -0.68672671    -0.40553421    -1.51388916
      4      C     0.41892731     1.41147185    -0.39541594
      5      N     1.50152283    -0.91935509    -0.77627854
      6      O     2.27184328    -0.36645001    -1.56471269
      7      O     1.63778401    -2.02035762    -0.24441506
      8      N    -0.51888074    -0.58201182     0.75955853
      9      H    -0.12924464    -0.20098705     1.62033721
     10      H    -0.57621840    -1.59988305     0.79504632
     11      C     1.28643934     1.74725670     0.74714503
     12      N     1.96798929     1.96122265     1.66073931
     13      C    -0.80564323     2.22979135    -0.40447537
     14      N    -1.76772417     2.87667413    -0.41587981

Total System Charge              0.00000

Performing a single point calculation on the final geometry ...

 *** adf ***



 ===========================
 A T T A C H E D   F I L E S
 ===========================
  
 Restart/tmp/amstmp_c5_fragB_opt_kid0.1494560891/GO1_GOStep25.rkf*** GO1_GOStep25 ***



 ===============================
 M O D E L   P A R A M E T E R S
 ===============================
  
 DENSITY FUNCTIONAL POTENTIAL (scf)
    LDA:                               Exchange only                           == Not Default ==
    Gradient Corrections:              Becke88 LYP                             == Not Default ==

 SPIN  (restricted / unrestr.)
    Molecule:                          Restricted                               
    Fragments:                         Restricted                               

 OTHER ASPECTS
    Relativistic Corrections:          scalar (ZORA,MAPA)                       

    Nuclear Charge Density Model:      Point Charge Nuclei                      
    Core Treatment:                    Frozen Orbital(s)                        

    Hyperfine or Zeeman Interaction:   ---                                      

 Settings for Grimme D3 dispersion correction

      damping                        BJ
      s6                          1.000
      s8                          2.700
      a1                          0.430
      a2                          4.236

 Other (technical) parameters

      alpha                      14.000
      version                         4
 



 ===============
 G E O M E T R Y  ***  3D  Molecule  ***
 ===============
  

 ATOMS
 =====                            X Y Z                    CHARGE
                                (Angstrom)             Nucl     +Core       At.Mass
                       --------------------------    ----------------       -------
    1  C               0.0732   -0.1105   -0.3941      6.00      6.00       12.0000
    2  H               0.9834    1.5890   -1.3232      1.00      1.00        1.0078
    3  F              -0.6867   -0.4055   -1.5139      9.00      9.00       18.9984
    4  C               0.4189    1.4115   -0.3954      6.00      6.00       12.0000
    5  N               1.5015   -0.9194   -0.7763      7.00      7.00       14.0031
    6  O               2.2718   -0.3665   -1.5647      8.00      8.00       15.9949
    7  O               1.6378   -2.0204   -0.2444      8.00      8.00       15.9949
    8  N              -0.5189   -0.5820    0.7596      7.00      7.00       14.0031
    9  H              -0.1292   -0.2010    1.6203      1.00      1.00        1.0078
   10  H              -0.5762   -1.5999    0.7950      1.00      1.00        1.0078
   11  C               1.2864    1.7473    0.7471      6.00      6.00       12.0000
   12  N               1.9680    1.9612    1.6607      7.00      7.00       14.0031
   13  C              -0.8056    2.2298   -0.4045      6.00      6.00       12.0000
   14  N              -1.7677    2.8767   -0.4159      7.00      7.00       14.0031


 FRAGMENTS
 =========                                     Atoms in this Fragment     Cart. coord.s (Angstrom)
                                               -------------------------------------------------------
    1  C                                                 1  C            0.0732   -0.1105   -0.3941
    2  C                                                 4  C            0.4189    1.4115   -0.3954
    3  C                                                11  C            1.2864    1.7473    0.7471
    4  C                                                13  C           -0.8056    2.2298   -0.4045
    5  H                                                 2  H            0.9834    1.5890   -1.3232
    6  H                                                 9  H           -0.1292   -0.2010    1.6203
    7  H                                                10  H           -0.5762   -1.5999    0.7950
    8  F                                                 3  F           -0.6867   -0.4055   -1.5139
    9  N                                                 5  N            1.5015   -0.9194   -0.7763
   10  N                                                 8  N           -0.5189   -0.5820    0.7596
   11  N                                                12  N            1.9680    1.9612    1.6607
   12  N                                                14  N           -1.7677    2.8767   -0.4159
   13  O                                                 6  O            2.2718   -0.3665   -1.5647
   14  O                                                 7  O            1.6378   -2.0204   -0.2444


 Interatomic Distance Matrix (Angstrom)
 --------------------------------------

   1)     0.000
   2)     2.140   0.000
   3)     1.385   2.608   0.000
   4)     1.561   1.100   2.403   0.000
   5)     1.685   2.619   2.366   2.598   0.000
   6)     2.504   2.354   2.959   2.822   1.233   0.000
   7)     2.473   3.824   3.102   3.645   1.230   2.209   0.000
   8)     1.380   3.363   2.286   2.487   2.560   3.638   2.780   0.000
   9)     2.027   3.620   3.190   2.639   2.987   3.992   3.148   1.019   0.000
  10)     2.013   4.134   2.602   3.388   2.692   3.899   2.482   1.020   1.685   0.000
  11)     2.495   2.098   3.693   1.473   3.079   3.284   3.912   2.947   2.562   3.831
          0.000
  12)     3.479   3.164   4.767   2.632   3.802   3.989   4.426   3.669   3.013   4.461
          1.160   0.000
  13)     2.500   2.111   2.862   1.473   3.922   4.190   4.905   3.057   3.235   4.020
          2.436   3.468   0.000
  14)     3.509   3.170   3.626   2.632   5.023   5.306   5.967   3.861   4.038   4.788
          3.458   4.371   1.159   0.000

 Min. Distance =    1.0188
 Max. Distance =    5.9672



 =====================================
 S Y M M E T R Y ,   E L E C T R O N S
 =====================================
  
 Symmetry: NOSYM

 Irreducible Representations, including subspecies
 -------------------------------------------------
 A


 Configuration of Valence Electrons
 ==================================
 ( determined in the SCF procedure )

 Total:   80

 Net Charge: 0 (Nuclei minus Electrons)

 Aufbau principle for MO occupations will be applied through SCF cycle no.     100
 Thereafter, the program will assign electrons to MOs that are spatially
 similar to the occupied MOs in a "reference" cycle ("KeepOrbitals").
 The reference cycle is always the PREVIOUS cycle: it will evolve with
 the SCF procedure.
 ***************************************************************************************************



                                      ****************************************
                                      *  B U I L D : (Fragments, Functions)  *
                                      ****************************************
  



 =======
 S F O s  ***  (Symmetrized Fragment Orbitals)  ***
 =======
  
 SFOs are linear combinations of (valence) Fragment Orbitals (FOs), such that the SFOs transform as the
 irreducible representations of the (molecular) symmetry group. Each SFO is therefore characterized by
 an irrep of the molecule and by a few (or only one) generating FOs.
 The SFOs constitute a symmetry-adapted basis for the Fock matrix. The MO eigenvector coefficients in
 this basis provide a direct interpretation of the MOs in terms of Frontier Orbital Theory.

 The SFOs are combined with auxiliary Core Functions (CFs) to ensure orthogonalization on the (frozen)
 Core Orbitals (COs). The Core-orthogonalized SFOs (CSFOs) constitute the true Fock basis.

 The FOs, and hence also the (C)SFOs are combinations of the elementary basis functions (BAS). The basis
 functions that participate in the description of the SFOs depend on the irrep. The indices of the
[...]
                                   -1.76%     2 P:z             4.589  0.00     2 C
                                    1.71%     2 P:x             7.649  0.00     9 N
                                    1.49%     1 P:x            -7.062  1.00    12 N
                                   -1.47%     2 S               2.394  0.00     7 H
                                    1.40%     1 P:x            -9.020  1.33    14 O
                                    1.30%     1 P:x            -5.239  0.67     3 C
                                    1.28%     2 P:y             4.589  0.00     1 C
                                    1.19%     1 S              -6.532  1.00     5 H
                                    1.16%     1 P:z            -5.239  0.67     2 C
                                    1.10%     1 P:y            -5.239  0.67     2 C
                                    1.06%     1 P:z           -11.127  1.67     8 F
                                    1.05%     2 P:z             4.589  0.00     3 C
      -0.300  0.00    48 A         38.55%     2 S               2.394  0.00     5 H
                                   32.00%     1 S              -6.532  1.00     5 H
                                   12.47%     2 S               2.394  0.00     7 H
                                   10.93%     1 S              -6.532  1.00     7 H
                                   10.76%     1 S              -6.532  1.00     6 H
                                   -8.88%     2 P:z             4.589  0.00     2 C
                                   -8.01%     2 P:z             4.589  0.00     1 C
                                    5.87%     2 S               2.394  0.00     6 H
                                    3.84%     3 S               0.624  0.00     8 F
                                   -3.74%     2 P:x             4.589  0.00     2 C
                                    3.35%     2 P:y             4.589  0.00     4 C
                                    2.72%     2 P:y             4.589  0.00     3 C
                                    2.44%     2 S             -13.620  2.00     2 C
                                   -2.30%     3 S              10.158  0.00     2 C
                                   -2.05%     2 P:y             4.589  0.00     1 C
                                   -1.89%     1 P:z            -5.239  0.67     1 C
                                   -1.70%     2 P:z             7.649  0.00    10 N
                                   -1.66%     2 P:x             4.589  0.00     4 C
                                   -1.62%     3 S              14.073  0.00    12 N
                                    1.47%     1 P:z            11.051  0.00     6 H
                                   -1.43%     2 P:y             7.649  0.00    10 N
                                   -1.30%     2 P:z             4.589  0.00     3 C
                                    1.22%     2 P:z             4.589  0.00     4 C
                                    1.19%     2 P:x             4.589  0.00     3 C
                                   -1.16%     1 P:z            -5.239  0.67     2 C
       0.307  0.00    49 A         28.51%     1 S              -6.532  1.00     7 H
                                   21.41%     1 S              -6.532  1.00     6 H
                                   14.79%     2 S               2.394  0.00     7 H
                                   -6.98%     2 P:y             7.649  0.00    10 N
                                    5.15%     3 S               0.624  0.00     8 F
                                   -4.86%     2 P:z             7.649  0.00    10 N
                                    3.97%     1 P:y            -7.062  1.00    10 N
                                    3.79%     1 P:x            -5.239  0.67     1 C
                                    3.65%     1 P:y            -5.239  0.67     4 C
                                   -3.56%     2 P:z             4.589  0.00     1 C
                                    3.53%     2 P:z             4.589  0.00     2 C
                                    3.06%     2 P:z             4.589  0.00     3 C
                                    2.81%     1 P:y            -7.062  1.00    12 N
                                    2.79%     1 P:x            -5.239  0.67     4 C
                                    2.26%     1 P:z            -7.062  1.00    10 N
                                    2.17%     2 P:x             4.589  0.00     1 C
                                   -2.14%     3 S              14.073  0.00    11 N
                                   -2.12%     2 S               2.394  0.00     6 H
                                    1.74%     1 P:z            -5.239  0.67     1 C
                                    1.63%     1 P:z            -5.239  0.67     4 C
                                    1.42%     1 P:y            -7.062  1.00    11 N
                                    1.37%     2 P:x             4.589  0.00     2 C
                                    1.30%     1 P:z           -11.127  1.67     8 F
                                    1.30%     3 S              40.869  0.00     6 H
                                    1.30%     1 P:x            -5.239  0.67     3 C
                                    1.18%     1 P:x            -7.062  1.00    12 N
                                    1.14%     1 P:y            11.051  0.00     7 H
                                    1.04%     3 S              40.869  0.00     7 H
                                    1.00%     2 S             -18.450  2.00     9 N
       0.694  0.00    50 A         85.34%     3 S               0.624  0.00     8 F
                                   -7.61%     2 P:z             4.589  0.00     1 C
                                    5.79%     2 S               2.394  0.00     6 H
                                    3.89%     2 P:z             4.589  0.00     2 C
                                   -3.45%     2 S               2.394  0.00     5 H
                                    3.09%     1 S              -6.532  1.00     5 H
                                   -2.89%     2 S             -13.620  2.00     1 C
                                   -2.37%     3 S              10.158  0.00     1 C
                                   -2.29%     2 P:z             4.589  0.00     4 C
                                    2.11%     1 P:z            -5.239  0.67     2 C
                                    2.04%     1 P:y            -5.239  0.67     3 C
                                    1.97%     1 P:z            -5.239  0.67     4 C
                                    1.92%     1 P:y            -5.239  0.67     4 C
                                   -1.81%     2 P:z            11.654  0.00     8 F
                                   -1.66%     2 P:x             7.649  0.00     9 N
                                    1.59%     2 P:z             7.649  0.00     9 N
                                    1.57%     1 S              -6.532  1.00     6 H
                                    1.57%     1 P:z            -7.062  1.00    12 N
                                    1.32%     1 P:y            -7.062  1.00    12 N
                                    1.31%     4 S              42.880  0.00     8 F
                                   -1.19%     2 P:x             4.589  0.00     1 C
                                   -1.18%     2 P:y             4.589  0.00     4 C
                                    1.06%     1 P:x            -7.062  1.00    10 N
                                   -1.02%     2 S             -29.785  2.00     8 F

 Energy gradients wrt nuclear displacements
 ==========================================

     Atom      Cartesian (a.u./angstrom)
                 X         Y         Z
 ----------------------------------------
     1 C    -0.000011  0.000007 -0.000014
     2 H    -0.000032 -0.000061 -0.000073
     3 F    -0.000017 -0.000082  0.000064
     4 C     0.000036 -0.000064 -0.000080
     5 N     0.000032 -0.000073  0.000070
     6 O    -0.000029 -0.000085  0.000029
     7 O    -0.000005 -0.000003  0.000143
     8 N    -0.000003  0.000045  0.000148
     9 H     0.000013  0.000115  0.000041
    10 H     0.000018  0.000055  0.000120
    11 C    -0.000012  0.000037 -0.000114
    12 N     0.000046  0.000129 -0.000090
    13 C    -0.000073  0.000030 -0.000109
    14 N     0.000039 -0.000052 -0.000135
 ----------------------------------------



 =======================================================================
 Electrostatic potential at the Nuclei due to electrons and other nuclei
 =======================================================================
  
         Atom                  Potential
         ----                  ---------
     1)   C                  14.55978460
     2)   H                   0.99484575
     3)   F                  26.58392984
     4)   C                  14.63408120
     5)   N                  18.16864510
     6)   O                  22.32486951
     7)   O                  22.32375536
     8)   N                  18.34414229
     9)   H                   0.96284661
    10)   H                   0.96874120
    11)   C                  14.70876647
    12)   N                  18.38567385
    13)   C                  14.71721856
    14)   N                  18.39594500
 Mulliken charges used for AMS results%charges...


    =====================
     CALCULATION RESULTS
    =====================

Energy (hartree)            -3.27035834

Gradients (hartree/bohr)
  Index   Atom            d/dx            d/dy            d/dz
      1      C   -0.0000055946    0.0000037939   -0.0000076245
      2      H   -0.0000170786   -0.0000321121   -0.0000384776
      3      F   -0.0000092142   -0.0000431406    0.0000340114
      4      C    0.0000189672   -0.0000340479   -0.0000425838
      5      N    0.0000170033   -0.0000385993    0.0000368838
      6      O   -0.0000155702   -0.0000449093    0.0000155440
      7      O   -0.0000026290   -0.0000015373    0.0000755888
      8      N   -0.0000016284    0.0000236985    0.0000783489
      9      H    0.0000067772    0.0000610012    0.0000218159
     10      H    0.0000093691    0.0000291276    0.0000637478
     11      C   -0.0000064699    0.0000197232   -0.0000604251
     12      N    0.0000242217    0.0000685105   -0.0000477119
     13      C   -0.0000387791    0.0000158739   -0.0000578994
     14      N    0.0000206254   -0.0000273823   -0.0000712184


--------------
Atomic charges
--------------
  Index   Atom    Charge
      1      C    0.6301
      2      H   -0.0223
      3      F   -0.3815
      4      C    0.1334
      5      N    0.5347
      6      O   -0.3640
      7      O   -0.3596
      8      N    0.0380
      9      H   -0.0119
     10      H   -0.0231
     11      C    0.1068
     12      N   -0.2059
     13      C    0.1354
     14      N   -0.2101


Dipole moment vector    (Debye):    -0.46319228   -1.54506713    0.37382891
              magnitude (Debye):     1.65575589


-----------------------
Molecular orbitals info
-----------------------
n orbitals:              319
n spin:                    1

Note: only printing virtual orbitals with
      energy smaller than HOMO + 100. eV

HOMO (eV):              -7.5217
LUMO (eV):              -4.0909
HOMO-LUMO gap (eV):      3.4308

   Index   Energy (eV)    Occupation
     193       92.0537         0.000       
     192       91.7916         0.000       
     191       91.3874         0.000       
     190       89.9192         0.000       
     189       89.6706         0.000       
     188       88.9045         0.000       
     187       87.8982         0.000       
     186       86.5281         0.000       
     185       86.1797         0.000       
     184       85.0402         0.000       
     183       83.8552         0.000       
     182       83.2092         0.000       
     181       82.3034         0.000       
     180       80.6605         0.000       
     179       80.3105         0.000       
     178       79.5844         0.000       
     177       78.7227         0.000       
     176       77.5775         0.000       
     175       76.7888         0.000       
     174       75.6603         0.000       
     173       73.5533         0.000       
     172       71.9378         0.000       
     171       71.5110         0.000       
     170       70.8316         0.000       
     169       69.6277         0.000       
     168       68.4058         0.000       
     167       67.4344         0.000       
     166       66.5332         0.000       
     165       65.8336         0.000       
     164       65.0967         0.000       
     163       64.2741         0.000       
     162       63.8414         0.000       
     161       63.0939         0.000       
     160       62.3040         0.000       
     159       61.6926         0.000       
     158       61.1348         0.000       
     157       60.0848         0.000       
     156       60.0010         0.000       
     155       59.2390         0.000       
     154       58.1910         0.000       
     153       56.8660         0.000       
     152       56.1446         0.000       
     151       55.1886         0.000       
     150       53.9445         0.000       
     149       53.8870         0.000       
     148       52.3087         0.000       
     147       51.7190         0.000       
     146       50.8985         0.000       
     145       50.6973         0.000       
     144       49.8546         0.000       
     143       48.9884         0.000       
     142       48.5071         0.000       
     141       46.9280         0.000       
     140       46.4118         0.000       
     139       45.1997         0.000       
     138       44.6948         0.000       
     137       44.0354         0.000       
     136       43.6337         0.000       
     135       43.3622         0.000       
     134       43.0572         0.000       
     133       42.3073         0.000       
     132       42.0830         0.000       
     131       41.5279         0.000       
     130       41.0846         0.000       
     129       40.0664         0.000       
     128       39.7085         0.000       
     127       39.2251         0.000       
     126       38.3967         0.000       
     125       37.4442         0.000       
     124       37.1613         0.000       
     123       36.1222         0.000       
     122       35.7763         0.000       
     121       35.1726         0.000       
     120       34.6895         0.000       
     119       34.4303         0.000       
     118       33.5510         0.000       
     117       33.3726         0.000       
     116       32.4160         0.000       
     115       32.3310         0.000       
     114       31.8747         0.000       
     113       31.4630         0.000       
     112       31.0452         0.000       
     111       29.8056         0.000       
     110       29.6897         0.000       
     109       29.1949         0.000       
     108       28.7107         0.000       
     107       27.6426         0.000       
     106       27.2248         0.000       
     105       27.1676         0.000       
     104       26.5825         0.000       
     103       26.1049         0.000       
     102       25.7049         0.000       
     101       24.3181         0.000       
     100       24.0592         0.000       
      99       23.2782         0.000       
      98       22.3218         0.000       
      97       22.2327         0.000       
      96       21.6605         0.000       
      95       20.9307         0.000       
      94       20.8302         0.000       
      93       20.1950         0.000       
      92       19.3175         0.000       
      91       18.6787         0.000       
      90       18.4781         0.000       
      89       18.0398         0.000       
      88       16.7507         0.000       
      87       16.2230         0.000       
      86       15.9294         0.000       
      85       14.9973         0.000       
      84       14.8146         0.000       
      83       14.5055         0.000       
      82       14.0913         0.000       
      81       13.4190         0.000       
      80       12.7599         0.000       
      79       12.0698         0.000       
      78       11.2598         0.000       
      77       10.9536         0.000       
      76       10.6655         0.000       
      75       10.2580         0.000       
      74       10.1668         0.000       
      73        9.7007         0.000       
      72        9.3831         0.000       
      71        9.0639         0.000       
      70        8.7484         0.000       
      69        8.1765         0.000       
      68        7.7839         0.000       
      67        7.0600         0.000       
      66        7.0502         0.000       
      65        6.3658         0.000       
      64        5.8511         0.000       
      63        5.3390         0.000       
      62        5.1048         0.000       
      61        4.8854         0.000       
      60        4.5688         0.000       
      59        4.5301         0.000       
      58        4.4555         0.000       
      57        4.0946         0.000       
      56        3.8363         0.000       
      55        3.5633         0.000       
      54        3.0932         0.000       
      53        2.2384         0.000       
      52        1.7637         0.000       
      51        1.5313         0.000       
      50        0.6936         0.000       
      49        0.3066         0.000       
      48       -0.2995         0.000       
      47       -0.6615         0.000       
      46       -1.0232         0.000       
      45       -1.1830         0.000       
      44       -1.5913         0.000       
      43       -1.9618         0.000       
      42       -2.3012         0.000       
      41       -4.0909         0.000 < LUMO
      40       -7.5217         2.000 < HOMO
      39       -8.0714         2.000       
      38       -8.8075         2.000       
      37       -8.9112         2.000       
      36       -9.2156         2.000       
      35       -9.2729         2.000       
      34       -9.5064         2.000       
      33       -9.7097         2.000       
      32       -9.7938         2.000       
      31       -9.9859         2.000       
      30      -11.0023         2.000       
      29      -11.3867         2.000       
      28      -12.6812         2.000       
      27      -13.3712         2.000       
      26      -13.4894         2.000       
      25      -13.9693         2.000       
      24      -14.2530         2.000       
      23      -15.1755         2.000       
      22      -15.2949         2.000       
      21      -15.7453         2.000       
      20      -16.7367         2.000       
      19      -18.9050         2.000       
      18      -21.7988         2.000       
      17      -23.5578         2.000       
      16      -23.9242         2.000       
      15      -24.8661         2.000       
      14      -27.4873         2.000       
      13      -31.4464         2.000       
      12      -32.1529         2.000       
      11     -272.2755         2.000       
      10     -272.5212         2.000       
       9     -274.0537         2.000       
       8     -276.1179         2.000       
       7     -382.7192         2.000       
       6     -383.0030         2.000       
       5     -383.4588         2.000       
       4     -388.4001         2.000       
       3     -513.6864         2.000       
       2     -513.7181         2.000       
       1     -663.2292         2.000       

AMS application finished. Exiting.
NORMAL TERMINATION
     Total cpu time:    1229.32
  Total system time:       5.43
 Total elapsed time:    1238.73
NORMAL TERMINATION
