
 *******************************************************************************
 *                                                                             *
 *  --------------------------------                                           *
 *   Amsterdam Modeling Suite (AMS)              2026.103                      *
 *  --------------------------------                                           *
 *                                               r260501 2026-05-01 873454b5   *
 *                                                                             *
 *                                                                             *
 *                              =================                              *
 *                              |               |                              *
 *                              |     A M S     |                              *
 *                              |               |                              *
 *                              =================                              *
 *                                                                             *
 *                                                                             *
 *   Online information and documentation:  https://www.scm.com/support/       *
 *   E-mail:  support@scm.com   info@scm.com                                   *
 *                                                                             *
 *   Scientific publications using AMS results must be properly referenced     *
 *   See the User Manuals (or the web site) for recommended citations          *
 *   The terms and conditions of the End User License Agreement apply to       *
 *   the use of AMS, https://www.scm.com/license-terms/                        *
 *                                                                             *
 **********************  x86_64_linux_intel / intelmpi  ************************
 
 Licensed to: Jong-June Jeon / University of Seoul 2026-05-13 16:10:32
 SCM User ID: u30731
  
 AMS 2026.103  RunTime: May30-2026 13:59:59  ShM Nodes: 1  Procs: 1

 AMS jobname: c3_eda
 AMS jobid  : 640069442

 Start   directory: /gpfs/home1/yeseo1ee/projects/eda-asm-prediction/adf_outputs/batch_001/dipolar_002700/
 Results directory: /gpfs/home1/yeseo1ee/projects/eda-asm-prediction/adf_outputs/batch_001/dipolar_002700/c3_eda.results/
 Scratch directory: /tmp/amstmp_c3_eda_kid0.640069442/

 RNG seed: -1291434922 -1759637412 -1557112342 -489761283 -580904090 -518029574 1798399704 -1946538637



                      ************************************************************************
                      *  ADF 2026.103  RunTime: May30-2026 13:59:59  ShM Nodes: 1  Procs: 1  *
                      ************************************************************************
  

       ****************************
       * SINGLE POINT CALCULATION *
       ****************************

--------
Geometry
--------
Formula: C18H25Br2N3O3
Atoms
  Index Symbol   x (angstrom)   y (angstrom)   z (angstrom)
      1      C    -1.46919000    -5.74216000     4.29205000 adf.f=fA
      2      N    -2.60302000    -4.83817000     4.26532000 adf.f=fA
      3      C    -2.69275000    -3.84855000     3.36192000 adf.f=fA
      4      O    -1.89889000    -3.65263000     2.44242000 adf.f=fA
      5      C    -3.86286000    -2.94261000     3.55709000 adf.f=fA
      6      N    -4.79213000    -2.72791000     2.81026000 adf.f=fA
      7      C    -5.79588000    -2.03971000     2.35763000 adf.f=fA
      8      C    -7.16821000    -2.65083000     2.41662000 adf.f=fA
      9      C    -5.40450000    -0.88607000     1.48797000 adf.f=fA
     10      O    -4.21783000    -0.64117000     1.23712000 adf.f=fA
     11      N    -6.41478000    -0.13618000     0.99476000 adf.f=fA
     12      C    -6.14497000     1.05974000     0.22026000 adf.f=fA
     13      H    -0.56841000    -5.24849000     4.69487000 adf.f=fA
     14      H    -1.71267000    -6.60547000     4.92359000 adf.f=fA
     15      H    -1.24297000    -6.09540000     3.27680000 adf.f=fA
     16      H    -3.20086000    -4.77432000     5.08484000 adf.f=fA
     17      H    -7.29418000    -3.38348000     1.60097000 adf.f=fA
     18      H    -7.96537000    -1.90641000     2.31076000 adf.f=fA
     19      H    -7.31195000    -3.17203000     3.37367000 adf.f=fA
     20      H    -7.35882000    -0.28776000     1.32928000 adf.f=fA
     21      H    -5.61119000     0.81230000    -0.71065000 adf.f=fA
     22      H    -7.09811000     1.53723000    -0.03689000 adf.f=fA
     23      H    -5.52625000     1.77233000     0.78748000 adf.f=fA
     24      C    -5.27023000    -0.53233000     4.61574000 adf.f=fB
     25      C    -4.31356000    -1.18064000     5.05721000 adf.f=fB
     26      C    -3.34441000    -1.32130000     6.12445000 adf.f=fB
     27     Br    -3.69380000    -3.02823000     7.13861000 adf.f=fB
     28     Br    -1.48349000    -1.44656000     5.37367000 adf.f=fB
     29      C    -3.34879000    -0.13956000     7.10179000 adf.f=fB
     30      C    -4.59487000     0.07749000     7.97357000 adf.f=fB
     31      C    -5.97401000     0.20050000     7.30765000 adf.f=fB
     32      C    -6.06718000     1.20954000     6.14489000 adf.f=fB
     33      C    -6.28723000     0.53516000     4.74033000 adf.f=fB
     34      C    -7.71868000    -0.01900000     4.64210000 adf.f=fB
     35      C    -6.01420000     1.64224000     3.70502000 adf.f=fB
     36      C    -7.14705000     2.55751000     3.33729000 adf.f=fB
     37      O    -4.89485000     1.78924000     3.24193000 adf.f=fB
     38      H    -3.16303000     0.74826000     6.47685000 adf.f=fB
     39      H    -2.48158000    -0.24300000     7.76962000 adf.f=fB
     40      H    -4.39068000     1.00517000     8.53480000 adf.f=fB
     41      H    -4.64583000    -0.72552000     8.72597000 adf.f=fB
     42      H    -6.68348000     0.49456000     8.09683000 adf.f=fB
     43      H    -6.30741000    -0.79291000     6.97256000 adf.f=fB
     44      H    -6.89790000     1.91266000     6.30675000 adf.f=fB
     45      H    -5.14814000     1.81349000     6.09506000 adf.f=fB
     46      H    -7.95470000    -0.33071000     3.61882000 adf.f=fB
     47      H    -8.44909000     0.74150000     4.95031000 adf.f=fB
     48      H    -7.83556000    -0.89073000     5.30086000 adf.f=fB
     49      H    -6.76187000     3.42570000     2.78773000 adf.f=fB
     50      H    -7.86073000     2.01073000     2.70015000 adf.f=fB
     51      H    -7.69962000     2.88374000     4.23084000 adf.f=fB

Total System Charge              0.00000


----------------
ADF Engine Input
----------------
 
   Basis
     Type TZ2P
     Core None
   End
   XC
     GGA BLYP
     Dispersion GRIMME3 BJDAMP
   End
   Symmetry NOSYM
   NumericalQuality Normal
   Unrestricted No
   SCF
     Iterations 200
     Converge 1.0e-6
   End
   fragments
     fA c1_fragA_ts.results/adf.rkf
     fB c2_fragB_ts.results/adf.rkf
   end
   etsnocv
     enocv 0.05
     ekmin 0.5
   end
   print etslowdin
   Save TAPE21
 

 Title: *** (NO TITLE) ***

 *** adf ***



 ===========================
 A T T A C H E D   F I L E S
 ===========================
  



 ===============================
 M O D E L   P A R A M E T E R S
 ===============================
  
 DENSITY FUNCTIONAL POTENTIAL (scf)
    LDA:                               Exchange only                           == Not Default ==
    Gradient Corrections:              Becke88 LYP                             == Not Default ==

 SPIN  (restricted / unrestr.)
    Molecule:                          Restricted                               
    Fragments:                         Restricted                               

 OTHER ASPECTS
    Relativistic Corrections:          scalar (ZORA,MAPA)                       

    Nuclear Charge Density Model:      Point Charge Nuclei                      
    Core Treatment:                    Frozen Orbital(s)                        

    Hyperfine or Zeeman Interaction:   ---                                      

 Settings for Grimme D3 dispersion correction

      damping                        BJ
      s6                          1.000
      s8                          2.700
      a1                          0.430
      a2                          4.236

 Other (technical) parameters

      alpha                      14.000
      version                         4
 


 Fragment File(s)
 ----------------
 fA:
         file : c1_fragA_ts.results/adf.rkf
         jobid: 1252856663
         title: *** adf ***
 fB:
         file : c2_fragB_ts.results/adf.rkf
         jobid: 1698662213
         title: *** adf ***



 ===============
 G E O M E T R Y  ***  3D  Molecule  ***
 ===============
  

 ATOMS
 =====                            X Y Z                    CHARGE
                                (Angstrom)             Nucl     +Core       At.Mass
                       --------------------------    ----------------       -------
    1  C              -1.4692   -5.7422    4.2920      6.00      6.00       12.0000
    2  N              -2.6030   -4.8382    4.2653      7.00      7.00       14.0031
    3  C              -2.6928   -3.8485    3.3619      6.00      6.00       12.0000
    4  O              -1.8989   -3.6526    2.4424      8.00      8.00       15.9949
    5  C              -3.8629   -2.9426    3.5571      6.00      6.00       12.0000
    6  N              -4.7921   -2.7279    2.8103      7.00      7.00       14.0031
    7  C              -5.7959   -2.0397    2.3576      6.00      6.00       12.0000
    8  C              -7.1682   -2.6508    2.4166      6.00      6.00       12.0000
    9  C              -5.4045   -0.8861    1.4880      6.00      6.00       12.0000
   10  O              -4.2178   -0.6412    1.2371      8.00      8.00       15.9949
   11  N              -6.4148   -0.1362    0.9948      7.00      7.00       14.0031
   12  C              -6.1450    1.0597    0.2203      6.00      6.00       12.0000
   13  H              -0.5684   -5.2485    4.6949      1.00      1.00        1.0078
   14  H              -1.7127   -6.6055    4.9236      1.00      1.00        1.0078
   15  H              -1.2430   -6.0954    3.2768      1.00      1.00        1.0078
   16  H              -3.2009   -4.7743    5.0848      1.00      1.00        1.0078
   17  H              -7.2942   -3.3835    1.6010      1.00      1.00        1.0078
   18  H              -7.9654   -1.9064    2.3108      1.00      1.00        1.0078
   19  H              -7.3119   -3.1720    3.3737      1.00      1.00        1.0078
   20  H              -7.3588   -0.2878    1.3293      1.00      1.00        1.0078
   21  H              -5.6112    0.8123   -0.7107      1.00      1.00        1.0078
   22  H              -7.0981    1.5372   -0.0369      1.00      1.00        1.0078
   23  H              -5.5263    1.7723    0.7875      1.00      1.00        1.0078
   24  C              -5.2702   -0.5323    4.6157      6.00      6.00       12.0000
   25  C              -4.3136   -1.1806    5.0572      6.00      6.00       12.0000
   26  C              -3.3444   -1.3213    6.1245      6.00      6.00       12.0000
   27  Br             -3.6938   -3.0282    7.1386     35.00     35.00       78.9183
   28  Br             -1.4835   -1.4466    5.3737     35.00     35.00       78.9183
   29  C              -3.3488   -0.1396    7.1018      6.00      6.00       12.0000
   30  C              -4.5949    0.0775    7.9736      6.00      6.00       12.0000
   31  C              -5.9740    0.2005    7.3076      6.00      6.00       12.0000
   32  C              -6.0672    1.2095    6.1449      6.00      6.00       12.0000
   33  C              -6.2872    0.5352    4.7403      6.00      6.00       12.0000
   34  C              -7.7187   -0.0190    4.6421      6.00      6.00       12.0000
   35  C              -6.0142    1.6422    3.7050      6.00      6.00       12.0000
   36  C              -7.1471    2.5575    3.3373      6.00      6.00       12.0000
   37  O              -4.8948    1.7892    3.2419      8.00      8.00       15.9949
   38  H              -3.1630    0.7483    6.4768      1.00      1.00        1.0078
   39  H              -2.4816   -0.2430    7.7696      1.00      1.00        1.0078
   40  H              -4.3907    1.0052    8.5348      1.00      1.00        1.0078
   41  H              -4.6458   -0.7255    8.7260      1.00      1.00        1.0078
   42  H              -6.6835    0.4946    8.0968      1.00      1.00        1.0078
   43  H              -6.3074   -0.7929    6.9726      1.00      1.00        1.0078
   44  H              -6.8979    1.9127    6.3068      1.00      1.00        1.0078
   45  H              -5.1481    1.8135    6.0951      1.00      1.00        1.0078
   46  H              -7.9547   -0.3307    3.6188      1.00      1.00        1.0078
   47  H              -8.4491    0.7415    4.9503      1.00      1.00        1.0078
   48  H              -7.8356   -0.8907    5.3009      1.00      1.00        1.0078
   49  H              -6.7619    3.4257    2.7877      1.00      1.00        1.0078
   50  H              -7.8607    2.0107    2.7001      1.00      1.00        1.0078
   51  H              -7.6996    2.8837    4.2308      1.00      1.00        1.0078


 FRAGMENTS
 =========                                     Atoms in this Fragment     Cart. coord.s (Angstrom)
                                               -------------------------------------------------------
    1  fA                                                1  C           -1.4692   -5.7422    4.2920
                                                         3  C           -2.6928   -3.8485    3.3619
                                                         5  C           -3.8629   -2.9426    3.5571
                                                         7  C           -5.7959   -2.0397    2.3576
                                                         8  C           -7.1682   -2.6508    2.4166
                                                         9  C           -5.4045   -0.8861    1.4880
                                                        12  C           -6.1450    1.0597    0.2203
                                                         2  N           -2.6030   -4.8382    4.2653
                                                         6  N           -4.7921   -2.7279    2.8103
                                                        11  N           -6.4148   -0.1362    0.9948
                                                         4  O           -1.8989   -3.6526    2.4424
                                                        10  O           -4.2178   -0.6412    1.2371
                                                        13  H           -0.5684   -5.2485    4.6949
                                                        14  H           -1.7127   -6.6055    4.9236
                                                        15  H           -1.2430   -6.0954    3.2768
                                                        16  H           -3.2009   -4.7743    5.0848
                                                        17  H           -7.2942   -3.3835    1.6010
                                                        18  H           -7.9654   -1.9064    2.3108
                                                        19  H           -7.3119   -3.1720    3.3737
                                                        20  H           -7.3588   -0.2878    1.3293
                                                        21  H           -5.6112    0.8123   -0.7107
                                                        22  H           -7.0981    1.5372   -0.0369
                                                        23  H           -5.5263    1.7723    0.7875
    2  fB                                               24  C           -5.2702   -0.5323    4.6157
                                                        25  C           -4.3136   -1.1806    5.0572
                                                        26  C           -3.3444   -1.3213    6.1245
                                                        29  C           -3.3488   -0.1396    7.1018
                                                        30  C           -4.5949    0.0775    7.9736
                                                        31  C           -5.9740    0.2005    7.3076
                                                        32  C           -6.0672    1.2095    6.1449
                                                        33  C           -6.2872    0.5352    4.7403
                                                        34  C           -7.7187   -0.0190    4.6421
                                                        35  C           -6.0142    1.6422    3.7050
                                                        36  C           -7.1471    2.5575    3.3373
                                                        27  Br          -3.6938   -3.0282    7.1386
                                                        28  Br          -1.4835   -1.4466    5.3737
                                                        37  O           -4.8948    1.7892    3.2419
                                                        38  H           -3.1630    0.7483    6.4768
                                                        39  H           -2.4816   -0.2430    7.7696
                                                        40  H           -4.3907    1.0052    8.5348
                                                        41  H           -4.6458   -0.7255    8.7260
                                                        42  H           -6.6835    0.4946    8.0968
                                                        43  H           -6.3074   -0.7929    6.9726
                                                        44  H           -6.8979    1.9127    6.3068
                                                        45  H           -5.1481    1.8135    6.0951
                                                        46  H           -7.9547   -0.3307    3.6188
                                                        47  H           -8.4491    0.7415    4.9503
                                                        48  H           -7.8356   -0.8907    5.3009
                                                        49  H           -6.7619    3.4257    2.7877
                                                        50  H           -7.8607    2.0107    2.7001
                                                        51  H           -7.6996    2.8837    4.2308



 =====================================
 S Y M M E T R Y ,   E L E C T R O N S
 =====================================
  
 Symmetry: NOSYM

 Irreducible Representations, including subspecies
 -------------------------------------------------
 A


 Configuration of Valence Electrons
 ==================================
 ( determined in the SCF procedure )

 Total:   248

 Net Charge: 0 (Nuclei minus Electrons)

 Aufbau principle for MO occupations will be applied through SCF cycle no.     100
 Thereafter, the program will assign electrons to MOs that are spatially
 similar to the occupied MOs in a "reference" cycle ("KeepOrbitals").
 The reference cycle is always the PREVIOUS cycle: it will evolve with
 the SCF procedure.
 ***************************************************************************************************



                                      ****************************************
                                      *  B U I L D : (Fragments, Functions)  *
                                      ****************************************
  

 The individual fragments are copies of the corresponding 'Master' fragments defined on the fragment files.
 However, they may have been rotated (and translated) with respect to the Master. The local coordinate axes
 of each fragment (which define for instance the spatial orientation in the current molecule of a fragment
 P:x orbital) are not necessarily those of the molecule.
 The local frame (if different from the molecular one) is printed to enable an interpretation of the expan-
 sion of an MO in Fragment Orbitals.



                                              ************************
                                              *  Fragment Type : fA  *
                                              ************************
  

 Fragment no.    1   (in the list of all fragments)
 -----------------
 The local coordinate frame is identical to the molecular frame.

 Check Atomic Coordinates:

                  Master (on file)          After Computed Tranformation               As specified on Input
           ----------------------------     ----------------------------     ---------------------------------
     1)    -1.46919  -5.74216   4.29205     -1.46919  -5.74216   4.29205       1  -1.46919  -5.74216   4.29205
     2)    -2.69275  -3.84855   3.36192     -2.69275  -3.84855   3.36192       3  -2.69275  -3.84855   3.36192
     3)    -3.86286  -2.94261   3.55709     -3.86286  -2.94261   3.55709       5  -3.86286  -2.94261   3.55709
     4)    -5.79588  -2.03971   2.35763     -5.79588  -2.03971   2.35763       7  -5.79588  -2.03971   2.35763
     5)    -7.16821  -2.65083   2.41662     -7.16821  -2.65083   2.41662       8  -7.16821  -2.65083   2.41662
     6)    -5.40450  -0.88607   1.48797     -5.40450  -0.88607   1.48797       9  -5.40450  -0.88607   1.48797
     7)    -6.14497   1.05974   0.22026     -6.14497   1.05974   0.22026      12  -6.14497   1.05974   0.22026
     8)    -2.60302  -4.83817   4.26532     -2.60302  -4.83817   4.26532       2  -2.60302  -4.83817   4.26532
     9)    -4.79213  -2.72791   2.81026     -4.79213  -2.72791   2.81026       6  -4.79213  -2.72791   2.81026
    10)    -6.41478  -0.13618   0.99476     -6.41478  -0.13618   0.99476      11  -6.41478  -0.13618   0.99476
    11)    -1.89889  -3.65263   2.44242     -1.89889  -3.65263   2.44242       4  -1.89889  -3.65263   2.44242
    12)    -4.21783  -0.64117   1.23712     -4.21783  -0.64117   1.23712      10  -4.21783  -0.64117   1.23712
    13)    -0.56841  -5.24849   4.69487     -0.56841  -5.24849   4.69487      13  -0.56841  -5.24849   4.69487
    14)    -1.71267  -6.60547   4.92359     -1.71267  -6.60547   4.92359      14  -1.71267  -6.60547   4.92359
    15)    -1.24297  -6.09540   3.27680     -1.24297  -6.09540   3.27680      15  -1.24297  -6.09540   3.27680
    16)    -3.20086  -4.77432   5.08484     -3.20086  -4.77432   5.08484      16  -3.20086  -4.77432   5.08484
    17)    -7.29418  -3.38348   1.60097     -7.29418  -3.38348   1.60097      17  -7.29418  -3.38348   1.60097
    18)    -7.96537  -1.90641   2.31076     -7.96537  -1.90641   2.31076      18  -7.96537  -1.90641   2.31076
    19)    -7.31195  -3.17203   3.37367     -7.31195  -3.17203   3.37367      19  -7.31195  -3.17203   3.37367
    20)    -7.35882  -0.28776   1.32928     -7.35882  -0.28776   1.32928      20  -7.35882  -0.28776   1.32928
    21)    -5.61119   0.81230  -0.71065     -5.61119   0.81230  -0.71065      21  -5.61119   0.81230  -0.71065
    22)    -7.09811   1.53723  -0.03689     -7.09811   1.53723  -0.03689      22  -7.09811   1.53723  -0.03689
    23)    -5.52625   1.77233   0.78748     -5.52625   1.77233   0.78748      23  -5.52625   1.77233   0.78748



                                              ************************
                                              *  Fragment Type : fB  *
                                              ************************
  

 Fragment no.    2   (in the list of all fragments)
 -----------------
 The local coordinate frame is identical to the molecular frame.

 Check Atomic Coordinates:

                  Master (on file)          After Computed Tranformation               As specified on Input
           ----------------------------     ----------------------------     ---------------------------------
     1)    -5.27023  -0.53233   4.61574     -5.27023  -0.53233   4.61574      24  -5.27023  -0.53233   4.61574
     2)    -4.31356  -1.18064   5.05721     -4.31356  -1.18064   5.05721      25  -4.31356  -1.18064   5.05721
     3)    -3.34441  -1.32130   6.12445     -3.34441  -1.32130   6.12445      26  -3.34441  -1.32130   6.12445
     4)    -3.34879  -0.13956   7.10179     -3.34879  -0.13956   7.10179      29  -3.34879  -0.13956   7.10179
     5)    -4.59487   0.07749   7.97357     -4.59487   0.07749   7.97357      30  -4.59487   0.07749   7.97357
     6)    -5.97401   0.20050   7.30765     -5.97401   0.20050   7.30765      31  -5.97401   0.20050   7.30765
     7)    -6.06718   1.20954   6.14489     -6.06718   1.20954   6.14489      32  -6.06718   1.20954   6.14489
     8)    -6.28723   0.53516   4.74033     -6.28723   0.53516   4.74033      33  -6.28723   0.53516   4.74033
     9)    -7.71868  -0.01900   4.64210     -7.71868  -0.01900   4.64210      34  -7.71868  -0.01900   4.64210
    10)    -6.01420   1.64224   3.70502     -6.01420   1.64224   3.70502      35  -6.01420   1.64224   3.70502
    11)    -7.14705   2.55751   3.33729     -7.14705   2.55751   3.33729      36  -7.14705   2.55751   3.33729
    12)    -3.69380  -3.02823   7.13861     -3.69380  -3.02823   7.13861      27  -3.69380  -3.02823   7.13861
    13)    -1.48349  -1.44656   5.37367     -1.48349  -1.44656   5.37367      28  -1.48349  -1.44656   5.37367
    14)    -4.89485   1.78924   3.24193     -4.89485   1.78924   3.24193      37  -4.89485   1.78924   3.24193
    15)    -3.16303   0.74826   6.47685     -3.16303   0.74826   6.47685      38  -3.16303   0.74826   6.47685
    16)    -2.48158  -0.24300   7.76962     -2.48158  -0.24300   7.76962      39  -2.48158  -0.24300   7.76962
    17)    -4.39068   1.00517   8.53480     -4.39068   1.00517   8.53480      40  -4.39068   1.00517   8.53480
    18)    -4.64583  -0.72552   8.72597     -4.64583  -0.72552   8.72597      41  -4.64583  -0.72552   8.72597
    19)    -6.68348   0.49456   8.09683     -6.68348   0.49456   8.09683      42  -6.68348   0.49456   8.09683
    20)    -6.30741  -0.79291   6.97256     -6.30741  -0.79291   6.97256      43  -6.30741  -0.79291   6.97256
    21)    -6.89790   1.91266   6.30675     -6.89790   1.91266   6.30675      44  -6.89790   1.91266   6.30675
    22)    -5.14814   1.81349   6.09506     -5.14814   1.81349   6.09506      45  -5.14814   1.81349   6.09506
    23)    -7.95470  -0.33071   3.61882     -7.95470  -0.33071   3.61882      46  -7.95470  -0.33071   3.61882
    24)    -8.44909   0.74150   4.95031     -8.44909   0.74150   4.95031      47  -8.44909   0.74150   4.95031
    25)    -7.83556  -0.89073   5.30086     -7.83556  -0.89073   5.30086      48  -7.83556  -0.89073   5.30086
    26)    -6.76187   3.42570   2.78773     -6.76187   3.42570   2.78773      49  -6.76187   3.42570   2.78773
    27)    -7.86073   2.01073   2.70015     -7.86073   2.01073   2.70015      50  -7.86073   2.01073   2.70015
    28)    -7.69962   2.88374   4.23084     -7.69962   2.88374   4.23084      51  -7.69962   2.88374   4.23084



 =======
 S F O s  ***  (Symmetrized Fragment Orbitals)  ***
 =======
  
 SFOs are linear combinations of (valence) Fragment Orbitals (FOs), such that the SFOs transform as the
 irreducible representations of the (molecular) symmetry group. Each SFO is therefore characterized by
 an irrep of the molecule and by a few (or only one) generating FOs.
 The SFOs constitute a symmetry-adapted basis for the Fock matrix. The MO eigenvector coefficients in
 this basis provide a direct interpretation of the MOs in terms of Frontier Orbital Theory.

 The SFOs are combined with auxiliary Core Functions (CFs) to ensure orthogonalization on the (frozen)
 Core Orbitals (COs). The Core-orthogonalized SFOs (CSFOs) constitute the true Fock basis.

 The FOs, and hence also the (C)SFOs are combinations of the elementary basis functions (BAS). The basis
 functions that participate in the description of the SFOs depend on the irrep. The indices of the
 involved functions are printed below for each irrep.
 (The complete list of primitive basis functions is printed in another section)

 Total nr. of (C)SFOs (summation over all irreps) :  1011

 NOTE: a (C)SFO that is defined as a combination of more than one FO is usually NOT normalized.



                                       === A ===
 Nr. of SFOs : 1011
 Cartesian basis functions that participate in this irrep (total number =  1146) :
      1     2     3     4     5     6     9    12     7    10
     13     8    11    14    15    16    17    18    19    20
     21    22    23    24    25    26    27    28    29    30
     31    32    33    34    35    36    39    42    37    40
     43    38    41    44    45    46    47    48    49    50
     51    52    53    54    55    56    57    58    59    60
     61    62    63    64    65    66    69    72    67    70
     73    68    71    74    75    76    77    78    79    80
     81    82    83    84    85    86    87    88    89    90
     91    92    93    94    95    96    99   102    97   100
    103    98   101   104   105   106   107   108   109   110
    111   112   113   114   115   116   117   118   119   120
    121   122   123   124   125   126   129   132   127   130
    133   128   131   134   135   136   137   138   139   140
    141   142   143   144   145   146   147   148   149   150
    151   152   153   154   155   156   159   162   157   160
    163   158   161   164   165   166   167   168   169   170
    171   172   173   174   175   176   177   178   179   180
    181   182   183   184   185   186   189   192   187   190
    193   188   191   194   195   196   197   198   199   200
    201   202   203   204   205   206   207   208   209   210
    211   212   213   214   215   216   219   222   217   220
    223   218   221   224   225   226   227   228   229   230
    231   232   233   234   235   236   237   238   239   240
    241   242   243   244   245   246   249   252   247   250
    253   248   251   254   255   256   257   258   259   260
    261   262   263   264   265   266   267   268   269   270
    271   272   273   274   275   276   279   282   277   280
    283   278   281   284   285   286   287   288   289   290
    291   292   293   294   295   296   297   298   299   300
    301   302   303   304   305   306   309   312   307   310
    313   308   311   314   315   316   317   318   319   320
    321   322   323   324   325   326   327   328   329   330
    331   332   333   334   335   336   339   342   337   340
    343   338   341   344   345   346   347   348   349   350
    351   352   353   354   355   356   357   358   359   360
    361   362   363   364   365   366   367   368   369   370
    371   372   373   374   375   376   377   378   379   380
    381   382   383   384   385   386   387   388   389   390
    391   392   393   394   395   396   397   398   399   400
    401   402   403   404   405   406   407   408   409   410
    411   412   413   414   415   416   417   418   419   420
    421   422   423   424   425   426   427   428   429   430
    431   432   433   434   435   436   437   438   439   440
    441   442   443   444   445   446   447   448   449   450
    451   452   453   454   455   456   457   458   459   460
    461   462   463   464   465   466   467   468   469   470
    471   472   473   474   475   476   477   478   479   480
    481   482   483   484   485   486   487   488   489   490
    491   492   493   494   495   496   497   498   501   504
    499   502   505   500   503   506   507   508   509   510
    511   512   513   514   515   516   517   518   519   520
    521   522   523   524   525   526   527   528   531   534
    529   532   535   530   533   536   537   538   539   540
    541   542   543   544   545   546   547   548   549   550
    551   552   553   554   555   556   557   558   561   564
    559   562   565   560   563   566   567   568   569   570
    571   572   573   574   575   576   577   578   579   580
    581   582   583   584   585   586   587   588   591   594
    589   592   595   590   593   596   597   598   599   600
    601   602   603   604   605   606   607   608   609   610
    611   612   613   614   615   616   617   618   621   624
    619   622   625   620   623   626   627   628   629   630
    631   632   633   634   635   636   637   638   639   640
    641   642   643   644   645   646   647   648   651   654
    649   652   655   650   653   656   657   658   659   660
    661   662   663   664   665   666   667   668   669   670
    671   672   673   674   675   676   677   678   681   684
    679   682   685   680   683   686   687   688   689   690
    691   692   693   694   695   696   697   698   699   700
    701   702   703   704   705   706   707   708   711   714
    709   712   715   710   713   716   717   718   719   720
    721   722   723   724   725   726   727   728   729   730
    731   732   733   734   735   736   737   738   741   744
    739   742   745   740   743   746   747   748   749   750
    751   752   753   754   755   756   757   758   759   760
    761   762   763   764   765   766   767   768   771   774
    769   772   775   770   773   776   777   778   779   780
    781   782   783   784   785   786   787   788   789   790
    791   792   793   794   795   796   797   798   801   804
    799   802   805   800   803   806   807   808   809   810
    811   812   813   814   815   816   817   818   819   820
    821   822   823   824   825   832   833   858   859   860
    826   829   834   837   861   864   867   827   830   835
    838   862   865   868   828   831   836   839   863   866
    869   840   846   852   870   841   847   853   871   842
    848   854   872   843   849   855   873   844   850   856
    874   845   851   857   875   876   877   878   879   880
    881   882   883   884   885   886   887   888   895   896
    921   922   923   889   892   897   900   924   927   930
    890   893   898   901   925   928   931   891   894   899
    902   926   929   932   903   909   915   933   904   910
    916   934   905   911   917   935   906   912   918   936
    907   913   919   937   908   914   920   938   939   940
    941   942   943   944   945   946   947   948   949   950
    951   952   953   954   957   960   955   958   961   956
    959   962   963   964   965   966   967   968   969   970
    971   972   973   974   975   976   977   978   979   980
    981   982   983   984   985   986   987   988   989   990
    991   992   993   994   995   996   997   998   999  1000
   1001  1002  1003  1004  1005  1006  1007  1008  1009  1010
   1011  1012  1013  1014  1015  1016  1017  1018  1019  1020
   1021  1022  1023  1024  1025  1026  1027  1028  1029  1030
   1031  1032  1033  1034  1035  1036  1037  1038  1039  1040
   1041  1042  1043  1044  1045  1046  1047  1048  1049  1050
   1051  1052  1053  1054  1055  1056  1057  1058  1059  1060
   1061  1062  1063  1064  1065  1066  1067  1068  1069  1070
   1071  1072  1073  1074  1075  1076  1077  1078  1079  1080
   1081  1082  1083  1084  1085  1086  1087  1088  1089  1090
   1091  1092  1093  1094  1095  1096  1097  1098  1099  1100
   1101  1102  1103  1104  1105  1106  1107  1108  1109  1110
   1111  1112  1113  1114  1115  1116  1117  1118  1119  1120
   1121  1122  1123  1124  1125  1126  1127  1128  1129  1130
   1131  1132  1133  1134  1135  1136  1137  1138  1139  1140
   1141  1142  1143  1144  1145  1146

    SFO  (index         Fragment          Generating    Expansion in Fragment Orbitals
  indx  incl.CFs)   Occup   Orb.Energy   FragmentType  Coeff.   Orbital     on Fragment
 --------------------------------------------------------------------------------------
     1       1      2.000     -18.765 au  fA            1.00      1 A               1
                        (    -510.616 eV)
     2       2      2.000     -18.745 au  fA            1.00      2 A               1
                        (    -510.066 eV)
     3       3      2.000     -14.087 au  fA            1.00      3 A               1
                        (    -383.319 eV)
     4       4      2.000     -14.060 au  fA            1.00      4 A               1
                        (    -382.599 eV)
     5       5      2.000     -14.050 au  fA            1.00      5 A               1
                        (    -382.311 eV)
     6       6      2.000     -10.028 au  fA            1.00      6 A               1
                        (    -272.868 eV)
     7       7      2.000     -10.010 au  fA            1.00      7 A               1
                        (    -272.381 eV)
     8       8      2.000      -9.971 au  fA            1.00      8 A               1
                        (    -271.338 eV)
     9       9      2.000      -9.971 au  fA            1.00      9 A               1
                        (    -271.320 eV)
    10      10      2.000      -9.962 au  fA            1.00     10 A               1
                        (    -271.073 eV)
    11      11      2.000      -9.953 au  fA            1.00     11 A               1
                        (    -270.846 eV)
    12      12      2.000      -9.944 au  fA            1.00     12 A               1
                        (    -270.580 eV)
    13      13      2.000      -0.952 au  fA            1.00     13 A               1
                        (     -25.893 eV)
    14      14      2.000      -0.937 au  fA            1.00     14 A               1
                        (     -25.492 eV)
    15      15      2.000      -0.892 au  fA            1.00     15 A               1
                        (     -24.286 eV)
    16      16      2.000      -0.855 au  fA            1.00     16 A               1
                        (     -23.257 eV)
    17      17      2.000      -0.840 au  fA            1.00     17 A               1
                        (     -22.866 eV)
    18      18      2.000      -0.733 au  fA            1.00     18 A               1
                        (     -19.954 eV)
    19      19      2.000      -0.668 au  fA            1.00     19 A               1
                        (     -18.176 eV)
    20      20      2.000      -0.646 au  fA            1.00     20 A               1
                        (     -17.571 eV)
    21      21      2.000      -0.636 au  fA            1.00     21 A               1
                        (     -17.295 eV)
    22      22      2.000      -0.556 au  fA            1.00     22 A               1
                        (     -15.136 eV)
    23      23      2.000      -0.541 au  fA            1.00     23 A               1
                        (     -14.712 eV)
    24      24      2.000      -0.523 au  fA            1.00     24 A               1
                        (     -14.219 eV)
    25      25      2.000      -0.505 au  fA            1.00     25 A               1
                        (     -13.750 eV)
    26      26      2.000      -0.432 au  fA            1.00     26 A               1
                        (     -11.760 eV)
    27      27      2.000      -0.427 au  fA            1.00     27 A               1
                        (     -11.630 eV)
    28      28      2.000      -0.418 au  fA            1.00     28 A               1
                        (     -11.361 eV)
    29      29      2.000      -0.412 au  fA            1.00     29 A               1
                        (     -11.216 eV)
    30      30      2.000      -0.410 au  fA            1.00     30 A               1
                        (     -11.168 eV)
    31      31      2.000      -0.394 au  fA            1.00     31 A               1
                        (     -10.729 eV)
    32      32      2.000      -0.382 au  fA            1.00     32 A               1
                        (     -10.401 eV)
    33      33      2.000      -0.375 au  fA            1.00     33 A               1
                        (     -10.198 eV)
    34      34      2.000      -0.367 au  fA            1.00     34 A               1
                        (      -9.984 eV)
    35      35      2.000      -0.358 au  fA            1.00     35 A               1
                        (      -9.748 eV)
    36      36      2.000      -0.356 au  fA            1.00     36 A               1
                        (      -9.688 eV)
    37      37      2.000      -0.344 au  fA            1.00     37 A               1
                        (      -9.355 eV)
    38      38      2.000      -0.338 au  fA            1.00     38 A               1
                        (      -9.190 eV)
    39      39      2.000      -0.320 au  fA            1.00     39 A               1
                        (      -8.706 eV)
    40      40      2.000      -0.305 au  fA            1.00     40 A               1
                        (      -8.306 eV)
    41      41      2.000      -0.237 au  fA            1.00     41 A               1
                        (      -6.450 eV)
    42      42      2.000      -0.227 au  fA            1.00     42 A               1
                        (      -6.171 eV)
    43      43      2.000      -0.221 au  fA            1.00     43 A               1
                        (      -6.008 eV)
    44      44      2.000      -0.204 au  fA            1.00     44 A               1
                        (      -5.560 eV)
    45      45      2.000      -0.177 au  fA            1.00     45 A               1
                        (      -4.819 eV)
    46      46       --        -0.087 au  fA            1.00     46 A               1
                        (      -2.354 eV)
    47      47       --        -0.066 au  fA            1.00     47 A               1
                        (      -1.793 eV)
    48      48       --        -0.027 au  fA            1.00     48 A               1
                        (      -0.739 eV)
    49      49       --        -0.016 au  fA            1.00     49 A               1
                        (      -0.448 eV)
    50      50       --         0.003 au  fA            1.00     50 A               1
                        (       0.069 eV)
    51      51       --         0.007 au  fA            1.00     51 A               1
                        (       0.198 eV)
    52      52       --         0.017 au  fA            1.00     52 A               1
                        (       0.468 eV)
    53      53       --         0.020 au  fA            1.00     53 A               1
                        (       0.545 eV)
    54      54       --         0.032 au  fA            1.00     54 A               1
                        (       0.857 eV)
    55      55       --         0.046 au  fA            1.00     55 A               1
                        (       1.255 eV)
    56      56       --         0.051 au  fA            1.00     56 A               1
                        (       1.374 eV)
    57      57       --         0.055 au  fA            1.00     57 A               1
                        (       1.498 eV)
    58      58       --         0.060 au  fA            1.00     58 A               1
                        (       1.629 eV)
    59      59       --         0.066 au  fA            1.00     59 A               1
                        (       1.809 eV)
    60      60       --         0.070 au  fA            1.00     60 A               1
                        (       1.911 eV)
    61      61       --         0.097 au  fA            1.00     61 A               1
                        (       2.653 eV)
    62      62       --         0.101 au  fA            1.00     62 A               1
                        (       2.735 eV)
    63      63       --         0.128 au  fA            1.00     63 A               1
                        (       3.495 eV)
    64      64       --         0.132 au  fA            1.00     64 A               1
                        (       3.601 eV)
    65      65       --         0.137 au  fA            1.00     65 A               1
                        (       3.729 eV)
    66      66       --         0.150 au  fA            1.00     66 A               1
                        (       4.093 eV)
    67      67       --         0.151 au  fA            1.00     67 A               1
                        (       4.119 eV)
    68      68       --         0.157 au  fA            1.00     68 A               1
                        (       4.279 eV)
    69      69       --         0.169 au  fA            1.00     69 A               1
                        (       4.605 eV)
    70      70       --         0.172 au  fA            1.00     70 A               1
                        (       4.672 eV)
    71      71       --         0.178 au  fA            1.00     71 A               1
                        (       4.850 eV)
    72      72       --         0.194 au  fA            1.00     72 A               1
                        (       5.270 eV)
    73      73       --         0.201 au  fA            1.00     73 A               1
                        (       5.458 eV)
    74      74       --         0.209 au  fA            1.00     74 A               1
                        (       5.677 eV)
    75      75       --         0.218 au  fA            1.00     75 A               1
                        (       5.945 eV)
    76      76       --         0.228 au  fA            1.00     76 A               1
                        (       6.202 eV)
    77      77       --         0.238 au  fA            1.00     77 A               1
                        (       6.469 eV)
    78      78       --         0.244 au  fA            1.00     78 A               1
                        (       6.647 eV)
    79      79       --         0.251 au  fA            1.00     79 A               1
                        (       6.830 eV)
    80      80       --         0.268 au  fA            1.00     80 A               1
                        (       7.291 eV)
    81      81       --         0.277 au  fA            1.00     81 A               1
                        (       7.529 eV)
    82      82       --         0.279 au  fA            1.00     82 A               1
                        (       7.590 eV)
    83      83       --         0.292 au  fA            1.00     83 A               1
                        (       7.957 eV)
    84      84       --         0.298 au  fA            1.00     84 A               1
                        (       8.104 eV)
    85      85       --         0.318 au  fA            1.00     85 A               1
                        (       8.663 eV)
    86      86       --         0.323 au  fA            1.00     86 A               1
                        (       8.791 eV)
    87      87       --         0.330 au  fA            1.00     87 A               1
                        (       8.993 eV)
    88      88       --         0.335 au  fA            1.00     88 A               1
                        (       9.120 eV)
    89      89       --         0.342 au  fA            1.00     89 A               1
                        (       9.317 eV)
    90      90       --         0.361 au  fA            1.00     90 A               1
                        (       9.815 eV)
    91      91       --         0.364 au  fA            1.00     91 A               1
                        (       9.897 eV)
    92      92       --         0.369 au  fA            1.00     92 A               1
                        (      10.042 eV)
    93      93       --         0.371 au  fA            1.00     93 A               1
                        (      10.109 eV)
    94      94       --         0.386 au  fA            1.00     94 A               1
                        (      10.512 eV)
    95      95       --         0.392 au  fA            1.00     95 A               1
                        (      10.654 eV)
    96      96       --         0.400 au  fA            1.00     96 A               1
                        (      10.881 eV)
    97      97       --         0.409 au  fA            1.00     97 A               1
                        (      11.136 eV)
    98      98       --         0.427 au  fA            1.00     98 A               1
                        (      11.614 eV)
    99      99       --         0.437 au  fA            1.00     99 A               1
                        (      11.892 eV)
   100     100       --         0.443 au  fA            1.00    100 A               1
                        (      12.046 eV)
   101     101       --         0.459 au  fA            1.00    101 A               1
                        (      12.490 eV)
   102     102       --         0.462 au  fA            1.00    102 A               1
                        (      12.564 eV)
   103     103       --         0.471 au  fA            1.00    103 A               1
                        (      12.813 eV)
   104     104       --         0.497 au  fA            1.00    104 A               1
                        (      13.526 eV)
   105     105       --         0.517 au  fA            1.00    105 A               1
                        (      14.064 eV)
   106     106       --         0.525 au  fA            1.00    106 A               1
                        (      14.279 eV)
   107     107       --         0.537 au  fA            1.00    107 A               1
                        (      14.602 eV)
   108     108       --         0.549 au  fA            1.00    108 A               1
                        (      14.950 eV)
   109     109       --         0.574 au  fA            1.00    109 A               1
                        (      15.621 eV)
   110     110       --         0.578 au  fA            1.00    110 A               1
                        (      15.736 eV)
   111     111       --         0.585 au  fA            1.00    111 A               1
                        (      15.918 eV)
   112     112       --         0.589 au  fA            1.00    112 A               1
                        (      16.028 eV)
   113     113       --         0.617 au  fA            1.00    113 A               1
                        (      16.779 eV)
   114     114       --         0.624 au  fA            1.00    114 A               1
                        (      16.982 eV)
   115     115       --         0.657 au  fA            1.00    115 A               1
                        (      17.888 eV)
   116     116       --         0.672 au  fA            1.00    116 A               1
                        (      18.285 eV)
   117     117       --         0.695 au  fA            1.00    117 A               1
                        (      18.912 eV)
   118     118       --         0.722 au  fA            1.00    118 A               1
                        (      19.654 eV)
   119     119       --         0.739 au  fA            1.00    119 A               1
                        (      20.098 eV)
   120     120       --         0.750 au  fA            1.00    120 A               1
                        (      20.410 eV)
   121     121       --         0.774 au  fA            1.00    121 A               1
                        (      21.055 eV)
   122     122       --         0.800 au  fA            1.00    122 A               1
                        (      21.760 eV)
   123     123       --         0.805 au  fA            1.00    123 A               1
                        (      21.895 eV)
   124     124       --         0.823 au  fA            1.00    124 A               1
                        (      22.406 eV)
   125     125       --         0.832 au  fA            1.00    125 A               1
                        (      22.648 eV)
   126     126       --         0.861 au  fA            1.00    126 A               1
                        (      23.420 eV)
   127     127       --         0.894 au  fA            1.00    127 A               1
                        (      24.322 eV)
   128     128       --         0.899 au  fA            1.00    128 A               1
                        (      24.458 eV)
   129     129       --         0.909 au  fA            1.00    129 A               1
                        (      24.741 eV)
   130     130       --         0.915 au  fA            1.00    130 A               1
                        (      24.894 eV)
   131     131       --         0.921 au  fA            1.00    131 A               1
                        (      25.049 eV)
   132     132       --         0.942 au  fA            1.00    132 A               1
                        (      25.627 eV)
   133     133       --         0.947 au  fA            1.00    133 A               1
                        (      25.756 eV)
   134     134       --         0.976 au  fA            1.00    134 A               1
                        (      26.561 eV)
   135     135       --         0.980 au  fA            1.00    135 A               1
                        (      26.663 eV)
   136     136       --         0.990 au  fA            1.00    136 A               1
                        (      26.950 eV)
   137     137       --         1.000 au  fA            1.00    137 A               1
                        (      27.209 eV)
   138     138       --         1.005 au  fA            1.00    138 A               1
                        (      27.337 eV)
   139     139       --         1.013 au  fA            1.00    139 A               1
                        (      27.566 eV)
   140     140       --         1.021 au  fA            1.00    140 A               1
                        (      27.787 eV)
   141     141       --         1.044 au  fA            1.00    141 A               1
                        (      28.405 eV)
   142     142       --         1.059 au  fA            1.00    142 A               1
                        (      28.821 eV)
   143     143       --         1.082 au  fA            1.00    143 A               1
                        (      29.434 eV)
   144     144       --         1.089 au  fA            1.00    144 A               1
                        (      29.628 eV)
   145     145       --         1.106 au  fA            1.00    145 A               1
                        (      30.095 eV)
   146     146       --         1.110 au  fA            1.00    146 A               1
                        (      30.204 eV)
   147     147       --         1.129 au  fA            1.00    147 A               1
                        (      30.719 eV)
   148     148       --         1.149 au  fA            1.00    148 A               1
                        (      31.267 eV)
   149     149       --         1.166 au  fA            1.00    149 A               1
                        (      31.737 eV)
   150     150       --         1.176 au  fA            1.00    150 A               1
                        (      32.005 eV)
   151     151       --         1.188 au  fA            1.00    151 A               1
                        (      32.332 eV)
   152     152       --         1.194 au  fA            1.00    152 A               1
                        (      32.490 eV)
   153     153       --         1.209 au  fA            1.00    153 A               1
                        (      32.903 eV)
   154     154       --         1.243 au  fA            1.00    154 A               1
                        (      33.813 eV)
   155     155       --         1.254 au  fA            1.00    155 A               1
                        (      34.135 eV)
   156     156       --         1.261 au  fA            1.00    156 A               1
                        (      34.301 eV)
   157     157       --         1.286 au  fA            1.00    157 A               1
                        (      34.989 eV)
   158     158       --         1.292 au  fA            1.00    158 A               1
                        (      35.154 eV)
   159     159       --         1.296 au  fA            1.00    159 A               1
                        (      35.263 eV)
   160     160       --         1.321 au  fA            1.00    160 A               1
                        (      35.944 eV)
   161     161       --         1.331 au  fA            1.00    161 A               1
                        (      36.231 eV)
   162     162       --         1.340 au  fA            1.00    162 A               1
                        (      36.471 eV)
   163     163       --         1.355 au  fA            1.00    163 A               1
                        (      36.859 eV)
   164     164       --         1.370 au  fA            1.00    164 A               1
                        (      37.285 eV)
   165     165       --         1.375 au  fA            1.00    165 A               1
                        (      37.405 eV)
   166     166       --         1.388 au  fA            1.00    166 A               1
                        (      37.776 eV)
   167     167       --         1.420 au  fA            1.00    167 A               1
                        (      38.639 eV)
   168     168       --         1.432 au  fA            1.00    168 A               1
                        (      38.970 eV)
   169     169       --         1.460 au  fA            1.00    169 A               1
                        (      39.732 eV)
   170     170       --         1.464 au  fA            1.00    170 A               1
                        (      39.843 eV)
   171     171       --         1.480 au  fA            1.00    171 A               1
                        (      40.286 eV)
   172     172       --         1.490 au  fA            1.00    172 A               1
                        (      40.542 eV)
   173     173       --         1.516 au  fA            1.00    173 A               1
                        (      41.240 eV)
   174     174       --         1.539 au  fA            1.00    174 A               1
                        (      41.879 eV)
   175     175       --         1.558 au  fA            1.00    175 A               1
                        (      42.404 eV)
   176     176       --         1.569 au  fA            1.00    176 A               1
                        (      42.686 eV)
   177     177       --         1.582 au  fA            1.00    177 A               1
                        (      43.037 eV)
   178     178       --         1.589 au  fA            1.00    178 A               1
                        (      43.245 eV)
   179     179       --         1.605 au  fA            1.00    179 A               1
                        (      43.667 eV)
   180     180       --         1.653 au  fA            1.00    180 A               1
                        (      44.986 eV)
   181     181       --         1.675 au  fA            1.00    181 A               1
                        (      45.584 eV)
   182     182       --         1.680 au  fA            1.00    182 A               1
                        (      45.708 eV)
   183     183       --         1.697 au  fA            1.00    183 A               1
                        (      46.170 eV)
   184     184       --         1.717 au  fA            1.00    184 A               1
                        (      46.721 eV)
   185     185       --         1.729 au  fA            1.00    185 A               1
                        (      47.052 eV)
   186     186       --         1.762 au  fA            1.00    186 A               1
                        (      47.956 eV)
   187     187       --         1.774 au  fA            1.00    187 A               1
                        (      48.284 eV)
   188     188       --         1.785 au  fA            1.00    188 A               1
                        (      48.580 eV)
   189     189       --         1.790 au  fA            1.00    189 A               1
                        (      48.715 eV)
   190     190       --         1.828 au  fA            1.00    190 A               1
                        (      49.739 eV)
   191     191       --         1.841 au  fA            1.00    191 A               1
                        (      50.106 eV)
   192     192       --         1.870 au  fA            1.00    192 A               1
                        (      50.891 eV)
   193     193       --         1.877 au  fA            1.00    193 A               1
                        (      51.077 eV)
   194     194       --         1.891 au  fA            1.00    194 A               1
                        (      51.467 eV)
   195     195       --         1.914 au  fA            1.00    195 A               1
                        (      52.095 eV)
   196     196       --         1.926 au  fA            1.00    196 A               1
                        (      52.400 eV)
   197     197       --         1.960 au  fA            1.00    197 A               1
                        (      53.323 eV)
   198     198       --         1.982 au  fA            1.00    198 A               1
                        (      53.936 eV)
   199     199       --         1.992 au  fA            1.00    199 A               1
                        (      54.204 eV)
   200     200       --         2.008 au  fA            1.00    200 A               1
                        (      54.651 eV)
   201     201       --         2.018 au  fA            1.00    201 A               1
                        (      54.901 eV)
   202     202       --         2.035 au  fA            1.00    202 A               1
                        (      55.362 eV)
   203     203       --         2.040 au  fA            1.00    203 A               1
                        (      55.511 eV)
   204     204       --         2.069 au  fA            1.00    204 A               1
                        (      56.292 eV)
   205     205       --         2.090 au  fA            1.00    205 A               1
                        (      56.869 eV)
   206     206       --         2.100 au  fA            1.00    206 A               1
                        (      57.132 eV)
   207     207       --         2.118 au  fA            1.00    207 A               1
                        (      57.622 eV)
   208     208       --         2.142 au  fA            1.00    208 A               1
                        (      58.291 eV)
   209     209       --         2.165 au  fA            1.00    209 A               1
                        (      58.907 eV)
   210     210       --         2.175 au  fA            1.00    210 A               1
                        (      59.180 eV)
   211     211       --         2.197 au  fA            1.00    211 A               1
                        (      59.797 eV)
   212     212       --         2.238 au  fA            1.00    212 A               1
                        (      60.905 eV)
   213     213       --         2.240 au  fA            1.00    213 A               1
                        (      60.948 eV)
   214     214       --         2.285 au  fA            1.00    214 A               1
                        (      62.172 eV)
   215     215       --         2.289 au  fA            1.00    215 A               1
                        (      62.274 eV)
   216     216       --         2.307 au  fA            1.00    216 A               1
                        (      62.790 eV)
   217     217       --         2.334 au  fA            1.00    217 A               1
                        (      63.515 eV)
   218     218       --         2.371 au  fA            1.00    218 A               1
                        (      64.526 eV)
   219     219       --         2.407 au  fA            1.00    219 A               1
                        (      65.492 eV)
   220     220       --         2.425 au  fA            1.00    220 A               1
                        (      65.997 eV)
   221     221       --         2.454 au  fA            1.00    221 A               1
                        (      66.790 eV)
   222     222       --         2.474 au  fA            1.00    222 A               1
                        (      67.331 eV)
   223     223       --         2.508 au  fA            1.00    223 A               1
                        (      68.247 eV)
   224     224       --         2.518 au  fA            1.00    224 A               1
                        (      68.515 eV)
   225     225       --         2.564 au  fA            1.00    225 A               1
                        (      69.780 eV)
   226     226       --         2.603 au  fA            1.00    226 A               1
                        (      70.838 eV)
   227     227       --         2.679 au  fA            1.00    227 A               1
                        (      72.895 eV)
   228     228       --         2.685 au  fA            1.00    228 A               1
                        (      73.062 eV)
   229     229       --         2.708 au  fA            1.00    229 A               1
                        (      73.691 eV)
   230     230       --         2.720 au  fA            1.00    230 A               1
                        (      74.003 eV)
   231     231       --         2.736 au  fA            1.00    231 A               1
                        (      74.459 eV)
   232     232       --         2.746 au  fA            1.00    232 A               1
                        (      74.736 eV)
   233     233       --         2.775 au  fA            1.00    233 A               1
                        (      75.515 eV)
   234     234       --         2.786 au  fA            1.00    234 A               1
                        (      75.804 eV)
   235     235       --         2.792 au  fA            1.00    235 A               1
                        (      75.986 eV)
   236     236       --         2.801 au  fA            1.00    236 A               1
                        (      76.223 eV)
   237     237       --         2.816 au  fA            1.00    237 A               1
                        (      76.633 eV)
   238     238       --         2.824 au  fA            1.00    238 A               1
                        (      76.857 eV)
   239     239       --         2.840 au  fA            1.00    239 A               1
                        (      77.279 eV)
   240     240       --         2.845 au  fA            1.00    240 A               1
                        (      77.405 eV)
   241     241       --         2.852 au  fA            1.00    241 A               1
                        (      77.612 eV)
   242     242       --         2.863 au  fA            1.00    242 A               1
                        (      77.905 eV)
   243     243       --         2.872 au  fA            1.00    243 A               1
                        (      78.161 eV)
   244     244       --         2.887 au  fA            1.00    244 A               1
                        (      78.562 eV)
   245     245       --         2.901 au  fA            1.00    245 A               1
                        (      78.951 eV)
   246     246       --         2.906 au  fA            1.00    246 A               1
                        (      79.071 eV)
   247     247       --         2.952 au  fA            1.00    247 A               1
                        (      80.320 eV)
   248     248       --         2.984 au  fA            1.00    248 A               1
                        (      81.192 eV)
   249     249       --         3.005 au  fA            1.00    249 A               1
                        (      81.782 eV)
   250     250       --         3.014 au  fA            1.00    250 A               1
                        (      82.015 eV)
   251     251       --         3.028 au  fA            1.00    251 A               1
                        (      82.388 eV)
   252     252       --         3.049 au  fA            1.00    252 A               1
                        (      82.969 eV)
   253     253       --         3.060 au  fA            1.00    253 A               1
                        (      83.262 eV)
   254     254       --         3.086 au  fA            1.00    254 A               1
                        (      83.982 eV)
   255     255       --         3.114 au  fA            1.00    255 A               1
                        (      84.723 eV)
   256     256       --         3.117 au  fA            1.00    256 A               1
                        (      84.807 eV)
   257     257       --         3.142 au  fA            1.00    257 A               1
                        (      85.494 eV)
   258     258       --         3.149 au  fA            1.00    258 A               1
                        (      85.678 eV)
   259     259       --         3.250 au  fA            1.00    259 A               1
                        (      88.426 eV)
   260     260       --         3.258 au  fA            1.00    260 A               1
                        (      88.646 eV)
   261     261       --         3.283 au  fA            1.00    261 A               1
                        (      89.348 eV)
   262     262       --         3.303 au  fA            1.00    262 A               1
                        (      89.888 eV)
   263     263       --         3.318 au  fA            1.00    263 A               1
                        (      90.281 eV)
   264     264       --         3.341 au  fA            1.00    264 A               1
                        (      90.910 eV)
   265     265       --         3.359 au  fA            1.00    265 A               1
                        (      91.406 eV)
   266     266       --         3.366 au  fA            1.00    266 A               1
                        (      91.582 eV)
   267     267       --         3.379 au  fA            1.00    267 A               1
                        (      91.936 eV)
   268     268       --         3.401 au  fA            1.00    268 A               1
                        (      92.556 eV)
   269     269       --         3.413 au  fA            1.00    269 A               1
                        (      92.882 eV)
   270     270       --         3.443 au  fA            1.00    270 A               1
                        (      93.690 eV)
   271     271       --         3.446 au  fA            1.00    271 A               1
                        (      93.775 eV)
   272     272       --         3.452 au  fA            1.00    272 A               1
                        (      93.946 eV)
   273     273       --         3.455 au  fA            1.00    273 A               1
                        (      94.003 eV)
   274     274       --         3.460 au  fA            1.00    274 A               1
                        (      94.140 eV)
   275     275       --         3.471 au  fA            1.00    275 A               1
                        (      94.458 eV)
   276     276       --         3.489 au  fA            1.00    276 A               1
                        (      94.950 eV)
   277     277       --         3.521 au  fA            1.00    277 A               1
                        (      95.803 eV)
   278     278       --         3.528 au  fA            1.00    278 A               1
                        (      96.010 eV)
   279     279       --         3.559 au  fA            1.00    279 A               1
                        (      96.842 eV)
   280     280       --         3.582 au  fA            1.00    280 A               1
                        (      97.477 eV)
   281     281       --         3.596 au  fA            1.00    281 A               1
                        (      97.844 eV)
   282     282       --         3.608 au  fA            1.00    282 A               1
                        (      98.178 eV)
   283     283       --         3.639 au  fA            1.00    283 A               1
                        (      99.035 eV)
   284     284       --         3.670 au  fA            1.00    284 A               1
                        (      99.857 eV)
   285     285       --         3.689 au  fA            1.00    285 A               1
                        (     100.375 eV)
   286     286       --         3.705 au  fA            1.00    286 A               1
                        (     100.818 eV)
   287     287       --         3.717 au  fA            1.00    287 A               1
                        (     101.147 eV)
   288     288       --         3.734 au  fA            1.00    288 A               1
                        (     101.612 eV)
   289     289       --         3.753 au  fA            1.00    289 A               1
                        (     102.112 eV)
   290     290       --         3.765 au  fA            1.00    290 A               1
                        (     102.460 eV)
   291     291       --         3.769 au  fA            1.00    291 A               1
                        (     102.559 eV)
   292     292       --         3.782 au  fA            1.00    292 A               1
                        (     102.913 eV)
   293     293       --         3.822 au  fA            1.00    293 A               1
                        (     103.989 eV)
   294     294       --         3.856 au  fA            1.00    294 A               1
                        (     104.922 eV)
   295     295       --         3.905 au  fA            1.00    295 A               1
                        (     106.257 eV)
   296     296       --         3.926 au  fA            1.00    296 A               1
                        (     106.826 eV)
   297     297       --         3.971 au  fA            1.00    297 A               1
                        (     108.046 eV)
   298     298       --         4.014 au  fA            1.00    298 A               1
                        (     109.215 eV)
   299     299       --         4.016 au  fA            1.00    299 A               1
                        (     109.287 eV)
   300     300       --         4.035 au  fA            1.00    300 A               1
                        (     109.796 eV)
   301     301       --         4.051 au  fA            1.00    301 A               1
                        (     110.232 eV)
   302     302       --         4.071 au  fA            1.00    302 A               1
                        (     110.776 eV)
   303     303       --         4.116 au  fA            1.00    303 A               1
                        (     112.002 eV)
   304     304       --         4.150 au  fA            1.00    304 A               1
                        (     112.930 eV)
   305     305       --         4.162 au  fA            1.00    305 A               1
                        (     113.241 eV)
   306     306       --         4.173 au  fA            1.00    306 A               1
                        (     113.563 eV)
   307     307       --         4.217 au  fA            1.00    307 A               1
                        (     114.756 eV)
   308     308       --         4.235 au  fA            1.00    308 A               1
                        (     115.233 eV)
   309     309       --         4.284 au  fA            1.00    309 A               1
                        (     116.568 eV)
   310     310       --         4.287 au  fA            1.00    310 A               1
                        (     116.652 eV)
   311     311       --         4.337 au  fA            1.00    311 A               1
                        (     118.005 eV)
   312     312       --         4.338 au  fA            1.00    312 A               1
                        (     118.056 eV)
   313     313       --         4.366 au  fA            1.00    313 A               1
                        (     118.809 eV)
   314     314       --         4.381 au  fA            1.00    314 A               1
                        (     119.204 eV)
   315     315       --         4.396 au  fA            1.00    315 A               1
                        (     119.631 eV)
   316     316       --         4.413 au  fA            1.00    316 A               1
                        (     120.090 eV)
   317     317       --         4.430 au  fA            1.00    317 A               1
                        (     120.551 eV)
   318     318       --         4.455 au  fA            1.00    318 A               1
                        (     121.219 eV)
   319     319       --         4.460 au  fA            1.00    319 A               1
                        (     121.367 eV)
   320     320       --         4.488 au  fA            1.00    320 A               1
                        (     122.123 eV)
   321     321       --         4.510 au  fA            1.00    321 A               1
                        (     122.727 eV)
   322     322       --         4.544 au  fA            1.00    322 A               1
                        (     123.643 eV)
   323     323       --         4.562 au  fA            1.00    323 A               1
                        (     124.149 eV)
   324     324       --         4.570 au  fA            1.00    324 A               1
                        (     124.344 eV)
   325     325       --         4.606 au  fA            1.00    325 A               1
                        (     125.340 eV)
   326     326       --         4.629 au  fA            1.00    326 A               1
                        (     125.974 eV)
   327     327       --         4.649 au  fA            1.00    327 A               1
                        (     126.513 eV)
   328     328       --         4.683 au  fA            1.00    328 A               1
                        (     127.435 eV)
   329     329       --         4.691 au  fA            1.00    329 A               1
                        (     127.644 eV)
   330     330       --         4.720 au  fA            1.00    330 A               1
                        (     128.439 eV)
   331     331       --         4.729 au  fA            1.00    331 A               1
                        (     128.680 eV)
   332     332       --         4.746 au  fA            1.00    332 A               1
                        (     129.135 eV)
   333     333       --         4.760 au  fA            1.00    333 A               1
                        (     129.514 eV)
   334     334       --         4.771 au  fA            1.00    334 A               1
                        (     129.828 eV)
   335     335       --         4.801 au  fA            1.00    335 A               1
                        (     130.628 eV)
   336     336       --         4.819 au  fA            1.00    336 A               1
                        (     131.123 eV)
   337     337       --         4.833 au  fA            1.00    337 A               1
                        (     131.515 eV)
   338     338       --         4.864 au  fA            1.00    338 A               1
                        (     132.357 eV)
   339     339       --         4.883 au  fA            1.00    339 A               1
                        (     132.871 eV)
   340     340       --         4.905 au  fA            1.00    340 A               1
                        (     133.480 eV)
   341     341       --         4.942 au  fA            1.00    341 A               1
                        (     134.487 eV)
   342     342       --         4.967 au  fA            1.00    342 A               1
                        (     135.154 eV)
   343     343       --         4.989 au  fA            1.00    343 A               1
                        (     135.747 eV)
   344     344       --         5.048 au  fA            1.00    344 A               1
                        (     137.353 eV)
   345     345       --         5.062 au  fA            1.00    345 A               1
[...]
     450       48.6537         0.000       
     449       48.3277         0.000       
     448       48.1882         0.000       
     447       47.9371         0.000       
     446       47.9198         0.000       
     445       47.5616         0.000       
     444       47.4328         0.000       
     443       47.3520         0.000       
     442       47.2644         0.000       
     441       47.0093         0.000       
     440       46.5297         0.000       
     439       46.2930         0.000       
     438       46.1351         0.000       
     437       45.8706         0.000       
     436       45.5717         0.000       
     435       45.3639         0.000       
     434       45.1879         0.000       
     433       44.8039         0.000       
     432       44.6355         0.000       
     431       44.5487         0.000       
     430       44.4300         0.000       
     429       44.2315         0.000       
     428       44.0324         0.000       
     427       43.8752         0.000       
     426       43.5780         0.000       
     425       43.3560         0.000       
     424       43.1708         0.000       
     423       43.0394         0.000       
     422       42.6281         0.000       
     421       42.4755         0.000       
     420       42.3750         0.000       
     419       41.9228         0.000       
     418       41.8506         0.000       
     417       41.4666         0.000       
     416       41.2484         0.000       
     415       41.0815         0.000       
     414       40.8315         0.000       
     413       40.8090         0.000       
     412       40.6047         0.000       
     411       40.4334         0.000       
     410       40.2463         0.000       
     409       40.1320         0.000       
     408       40.0629         0.000       
     407       39.7899         0.000       
     406       39.6643         0.000       
     405       39.5227         0.000       
     404       39.2960         0.000       
     403       39.1004         0.000       
     402       38.9877         0.000       
     401       38.8525         0.000       
     400       38.4578         0.000       
     399       38.3923         0.000       
     398       38.2426         0.000       
     397       38.0133         0.000       
     396       37.8272         0.000       
     395       37.7522         0.000       
     394       37.6134         0.000       
     393       37.5280         0.000       
     392       37.3162         0.000       
     391       37.2666         0.000       
     390       37.0603         0.000       
     389       36.7342         0.000       
     388       36.6685         0.000       
     387       36.5063         0.000       
     386       36.1947         0.000       
     385       36.0386         0.000       
     384       36.0289         0.000       
     383       35.8897         0.000       
     382       35.6258         0.000       
     381       35.4639         0.000       
     380       35.1080         0.000       
     379       35.0240         0.000       
     378       34.8289         0.000       
     377       34.7395         0.000       
     376       34.5213         0.000       
     375       34.3758         0.000       
     374       34.2384         0.000       
     373       34.1956         0.000       
     372       33.9071         0.000       
     371       33.8205         0.000       
     370       33.6126         0.000       
     369       33.5117         0.000       
     368       33.3999         0.000       
     367       33.2136         0.000       
     366       32.9808         0.000       
     365       32.7073         0.000       
     364       32.5735         0.000       
     363       32.3901         0.000       
     362       32.2848         0.000       
     361       32.1117         0.000       
     360       32.0675         0.000       
     359       31.7870         0.000       
     358       31.7220         0.000       
     357       31.5355         0.000       
     356       31.4326         0.000       
     355       31.3583         0.000       
     354       31.3426         0.000       
     353       31.0915         0.000       
     352       30.9669         0.000       
     351       30.7014         0.000       
     350       30.3733         0.000       
     349       30.2200         0.000       
     348       30.1150         0.000       
     347       29.9373         0.000       
     346       29.8298         0.000       
     345       29.6662         0.000       
     344       29.4236         0.000       
     343       29.2960         0.000       
     342       28.9911         0.000       
     341       28.8124         0.000       
     340       28.5904         0.000       
     339       28.3836         0.000       
     338       28.3017         0.000       
     337       28.1988         0.000       
     336       28.1262         0.000       
     335       28.0837         0.000       
     334       27.9101         0.000       
     333       27.8179         0.000       
     332       27.5599         0.000       
     331       27.3851         0.000       
     330       27.2323         0.000       
     329       27.1814         0.000       
     328       26.9777         0.000       
     327       26.7630         0.000       
     326       26.6125         0.000       
     325       26.4626         0.000       
     324       26.3187         0.000       
     323       26.2345         0.000       
     322       26.0103         0.000       
     321       25.9717         0.000       
     320       25.7665         0.000       
     319       25.5875         0.000       
     318       25.4537         0.000       
     317       25.4151         0.000       
     316       25.2337         0.000       
     315       25.0556         0.000       
     314       24.7796         0.000       
     313       24.6801         0.000       
     312       24.3602         0.000       
     311       24.3140         0.000       
     310       24.1684         0.000       
     309       23.9330         0.000       
     308       23.7838         0.000       
     307       23.4888         0.000       
     306       23.3263         0.000       
     305       23.2232         0.000       
     304       23.1077         0.000       
     303       23.0237         0.000       
     302       22.7765         0.000       
     301       22.5993         0.000       
     300       22.4974         0.000       
     299       22.1646         0.000       
     298       21.9033         0.000       
     297       21.7636         0.000       
     296       21.6541         0.000       
     295       21.6069         0.000       
     294       21.1871         0.000       
     293       20.9291         0.000       
     292       20.8589         0.000       
     291       20.6704         0.000       
     290       20.4352         0.000       
     289       20.1641         0.000       
     288       20.0289         0.000       
     287       19.8176         0.000       
     286       19.5108         0.000       
     285       19.4160         0.000       
     284       19.2704         0.000       
     283       18.6937         0.000       
     282       18.6083         0.000       
     281       18.5451         0.000       
     280       18.0700         0.000       
     279       18.0019         0.000       
     278       17.8345         0.000       
     277       17.6479         0.000       
     276       17.3935         0.000       
     275       17.2710         0.000       
     274       17.1407         0.000       
     273       17.0782         0.000       
     272       16.8246         0.000       
     271       16.5941         0.000       
     270       16.4590         0.000       
     269       16.3471         0.000       
     268       16.0135         0.000       
     267       15.6545         0.000       
     266       15.5988         0.000       
     265       15.3403         0.000       
     264       15.3289         0.000       
     263       15.1172         0.000       
     262       15.0679         0.000       
     261       14.7571         0.000       
     260       14.5962         0.000       
     259       14.4697         0.000       
     258       14.2138         0.000       
     257       14.1523         0.000       
     256       14.0172         0.000       
     255       13.8584         0.000       
     254       13.6845         0.000       
     253       13.4501         0.000       
     252       13.3247         0.000       
     251       13.2815         0.000       
     250       13.1242         0.000       
     249       13.0466         0.000       
     248       12.8959         0.000       
     247       12.6848         0.000       
     246       12.5861         0.000       
     245       12.3381         0.000       
     244       12.3200         0.000       
     243       12.1524         0.000       
     242       11.9887         0.000       
     241       11.9424         0.000       
     240       11.8308         0.000       
     239       11.7526         0.000       
     238       11.6920         0.000       
     237       11.4890         0.000       
     236       11.3364         0.000       
     235       11.2186         0.000       
     234       11.1092         0.000       
     233       11.0327         0.000       
     232       10.9650         0.000       
     231       10.7457         0.000       
     230       10.6763         0.000       
     229       10.5225         0.000       
     228       10.4192         0.000       
     227       10.3562         0.000       
     226       10.2744         0.000       
     225       10.2489         0.000       
     224       10.2155         0.000       
     223       10.1097         0.000       
     222        9.9279         0.000       
     221        9.7748         0.000       
     220        9.7509         0.000       
     219        9.7236         0.000       
     218        9.5219         0.000       
     217        9.4039         0.000       
     216        9.1999         0.000       
     215        9.1191         0.000       
     214        9.0957         0.000       
     213        8.9045         0.000       
     212        8.7040         0.000       
     211        8.6836         0.000       
     210        8.4903         0.000       
     209        8.2972         0.000       
     208        8.2636         0.000       
     207        8.1939         0.000       
     206        8.0180         0.000       
     205        7.9353         0.000       
     204        7.8545         0.000       
     203        7.7298         0.000       
     202        7.5556         0.000       
     201        7.4736         0.000       
     200        7.3236         0.000       
     199        7.2297         0.000       
     198        7.1846         0.000       
     197        7.0361         0.000       
     196        6.9103         0.000       
     195        6.8467         0.000       
     194        6.7869         0.000       
     193        6.6501         0.000       
     192        6.4944         0.000       
     191        6.3615         0.000       
     190        6.2865         0.000       
     189        6.2174         0.000       
     188        6.0861         0.000       
     187        6.0184         0.000       
     186        5.9551         0.000       
     185        5.7406         0.000       
     184        5.7258         0.000       
     183        5.6061         0.000       
     182        5.5270         0.000       
     181        5.3562         0.000       
     180        5.2599         0.000       
     179        5.0777         0.000       
     178        4.9716         0.000       
     177        4.9234         0.000       
     176        4.6902         0.000       
     175        4.6040         0.000       
     174        4.5796         0.000       
     173        4.4784         0.000       
     172        4.3143         0.000       
     171        4.2088         0.000       
     170        4.0934         0.000       
     169        4.0238         0.000       
     168        3.9856         0.000       
     167        3.7796         0.000       
     166        3.6957         0.000       
     165        3.5500         0.000       
     164        3.4744         0.000       
     163        3.3458         0.000       
     162        3.2865         0.000       
     161        3.1138         0.000       
     160        3.0626         0.000       
     159        2.9822         0.000       
     158        2.9081         0.000       
     157        2.7293         0.000       
     156        2.5210         0.000       
     155        2.3374         0.000       
     154        2.3206         0.000       
     153        2.0592         0.000       
     152        1.9375         0.000       
     151        1.8038         0.000       
     150        1.7111         0.000       
     149        1.6813         0.000       
     148        1.6140         0.000       
     147        1.4874         0.000       
     146        1.4221         0.000       
     145        1.2719         0.000       
     144        0.9872         0.000       
     143        0.9793         0.000       
     142        0.8973         0.000       
     141        0.8598         0.000       
     140        0.6519         0.000       
     139        0.5173         0.000       
     138        0.4256         0.000       
     137        0.3200         0.000       
     136        0.2396         0.000       
     135        0.1089         0.000       
     134       -0.0447         0.000       
     133       -0.3496         0.000       
     132       -0.4183         0.000       
     131       -0.9390         0.000       
     130       -1.0647         0.000       
     129       -1.7913         0.000       
     128       -1.8390         0.000       
     127       -1.9471         0.000       
     126       -2.1554         0.000       
     125       -2.3419         0.000 < LUMO
     124       -5.1051         2.000 < HOMO
     123       -5.5601         2.000       
     122       -5.7955         2.000       
     121       -6.0013         2.000       
     120       -6.0449         2.000       
     119       -6.1634         2.000       
     118       -6.2147         2.000       
     117       -6.4287         2.000       
     116       -6.4522         2.000       
     115       -6.7189         2.000       
     114       -7.1492         2.000       
     113       -7.2612         2.000       
     112       -8.1424         2.000       
     111       -8.1839         2.000       
     110       -8.2497         2.000       
     109       -8.3765         2.000       
     108       -8.6543         2.000       
     107       -8.8299         2.000       
     106       -9.1392         2.000       
     105       -9.2479         2.000       
     104       -9.3226         2.000       
     103       -9.3809         2.000       
     102       -9.4119         2.000       
     101       -9.6025         2.000       
     100       -9.7096         2.000       
      99       -9.8030         2.000       
      98       -9.8280         2.000       
      97      -10.1009         2.000       
      96      -10.1185         2.000       
      95      -10.2200         2.000       
      94      -10.3070         2.000       
      93      -10.5460         2.000       
      92      -10.5705         2.000       
      91      -10.7109         2.000       
      90      -10.8652         2.000       
      89      -10.8904         2.000       
      88      -11.0950         2.000       
      87      -11.2565         2.000       
      86      -11.3832         2.000       
      85      -11.4696         2.000       
      84      -11.6260         2.000       
      83      -11.7684         2.000       
      82      -11.8482         2.000       
      81      -11.9657         2.000       
      80      -12.0801         2.000       
      79      -12.3198         2.000       
      78      -13.4652         2.000       
      77      -13.8236         2.000       
      76      -14.2235         2.000       
      75      -14.4288         2.000       
      74      -14.7268         2.000       
      73      -15.0594         2.000       
      72      -15.1812         2.000       
      71      -16.5591         2.000       
      70      -16.8951         2.000       
      69      -17.3583         2.000       
      68      -17.6323         2.000       
      67      -17.9701         2.000       
      66      -18.1622         2.000       
      65      -18.6703         2.000       
      64      -18.8906         2.000       
      63      -19.5620         2.000       
      62      -19.7348         2.000       
      61      -20.0786         2.000       
      60      -21.0573         2.000       
      59      -21.7321         2.000       
      58      -22.9508         2.000       
      57      -23.1439         2.000       
      56      -24.3019         2.000       
      55      -25.5121         2.000       
      54      -25.8524         2.000       
      53      -26.0926         2.000       
      52      -65.3439         2.000       
      51      -65.3471         2.000       
      50      -65.6072         2.000       
      49      -65.6153         2.000       
      48      -65.7065         2.000       
      47      -65.7167         2.000       
      46      -65.7182         2.000       
      45      -65.9556         2.000       
      44      -65.9606         2.000       
      43      -66.0522         2.000       
      42     -171.9202         2.000       
      41     -171.9312         2.000       
      40     -172.2858         2.000       
      39     -172.2887         2.000       
      38     -172.2942         2.000       
      37     -172.6231         2.000       
      36     -235.8170         2.000       
      35     -236.1733         2.000       
      34     -270.0558         2.000       
      33     -270.1811         2.000       
      32     -270.2715         2.000       
      31     -270.2908         2.000       
      30     -270.4873         2.000       
      29     -270.5178         2.000       
      28     -270.5656         2.000       
      27     -270.5769         2.000       
      26     -270.7214         2.000       
      25     -270.8170         2.000       
      24     -270.9377         2.000       
      23     -271.4306         2.000       
      22     -271.6763         2.000       
      21     -271.6785         2.000       
      20     -272.4528         2.000       
      19     -272.5517         2.000       
      18     -272.8749         2.000       
      17     -273.2963         2.000       
      16     -382.4225         2.000       
      15     -382.4445         2.000       
      14     -383.0823         2.000       
      13     -510.0671         2.000       
      12     -510.5827         2.000       
      11     -511.3093         2.000       
      10    -1526.0290         2.000       
       9    -1526.0333         2.000       
       8    -1526.1535         2.000       
       7    -1526.3864         2.000       
       6    -1526.3887         2.000       
       5    -1526.4993         2.000       
       4    -1729.1631         2.000       
       3    -1729.5164         2.000       
       2   -13295.6479         2.000       
       1   -13295.9939         2.000       

AMS application finished. Exiting.
NORMAL TERMINATION
     Total cpu time:     976.81
  Total system time:       4.53
 Total elapsed time:     986.75
NORMAL TERMINATION
