srun: Step created for StepId=663296.3

 *******************************************************************************
 *                                                                             *
 *  --------------------------------                                           *
 *   Amsterdam Modeling Suite (AMS)              2026.103                      *
 *  --------------------------------                                           *
 *                                               r260501 2026-05-01 873454b5   *
 *                                                                             *
 *                                                                             *
 *                              =================                              *
 *                              |               |                              *
 *                              |     A M S     |                              *
 *                              |               |                              *
 *                              =================                              *
 *                                                                             *
 *                                                                             *
 *   Online information and documentation:  https://www.scm.com/support/       *
 *   E-mail:  support@scm.com   info@scm.com                                   *
 *                                                                             *
 *   Scientific publications using AMS results must be properly referenced     *
 *   See the User Manuals (or the web site) for recommended citations          *
 *   The terms and conditions of the End User License Agreement apply to       *
 *   the use of AMS, https://www.scm.com/license-terms/                        *
 *                                                                             *
 **********************  x86_64_linux_intel / intelmpi  ************************
 
 Licensed to: Jong-June Jeon / University of Seoul 2026-06-02 13:44:15
 SCM User ID: u30731
  
 AMS 2026.103  RunTime: Jun04-2026 08:32:15  ShM Nodes: 1  Procs: 1

 AMS jobname: c2_fragB_ts
 AMS jobid  : 139280271

 Start   directory: /gpfs/home1/yeseo1ee/projects/eda-asm-prediction/ADF_800/adf_outputs/batch_005/qmrxn20_e2_D_E_D_D_C_B/
 Results directory: /gpfs/home1/yeseo1ee/projects/eda-asm-prediction/ADF_800/adf_outputs/batch_005/qmrxn20_e2_D_E_D_D_C_B/c2_fragB_ts.results/
 Scratch directory: /tmp/amstmp_c2_fragB_ts_kid0.139280271/

 RNG seed: 35654673 -1552047372 455546302 -2099463847 -1478403704 393729149 -1632088825 -1940561656



                      ************************************************************************
                      *  ADF 2026.103  RunTime: Jun04-2026 08:32:15  ShM Nodes: 1  Procs: 1  *
                      ************************************************************************
  

       ****************************
       * SINGLE POINT CALCULATION *
       ****************************

--------
Geometry
--------
Formula: C5H11BrN
Atoms
  Index Symbol   x (angstrom)   y (angstrom)   z (angstrom)
      1      C    -0.24315158    -0.00532682    -0.28817107
      2      C    -0.02524121    -0.00867466     1.13029509
      3     Br     1.80550548     0.11065208    -1.36414401
      4      C    -0.80903548    -1.26497566    -0.90074193
      5      H    -0.18963189    -2.13936197    -0.70740437
      6      H    -1.80233734    -1.40800160    -0.45841868
      7      H    -0.90600980    -1.12149393    -1.97562124
      8      N    -0.90212631     1.14994954    -0.85886587
      9      H    -0.34415565     1.97102205    -0.65826233
     10      H    -1.76085135     1.21684997    -0.30493172
     11      C     0.52933948     1.27169578     1.72176447
     12      H    -0.12034465     2.12686919     1.52089881
     13      H     0.60409641     1.18147107     2.81038100
     14      H     1.53096013     1.48954472     1.32290191
     15      C     0.61261216    -1.24887101     1.71847119
     16      H     0.05672842    -2.15873529     1.48032669
     17      H     1.64169922    -1.37291795     1.34907500
     18      H     0.65069079    -1.17356831     2.81069409

Total System Charge              0.00000


----------------
ADF Engine Input
----------------
 
   Basis
     Type TZ2P
     Core None
   End
   XC
     GGA BLYP
     Dispersion GRIMME3 BJDAMP
   End
   Symmetry NOSYM
   NumericalQuality Normal
   Unrestricted No
   SCF
     Iterations 200
     Converge 1.0e-6
   End
   Save TAPE21
 

 Title: *** (NO TITLE) ***

 *** adf ***



 ===========================
 A T T A C H E D   F I L E S
 ===========================
  



 ===============================
 M O D E L   P A R A M E T E R S
 ===============================
  
 DENSITY FUNCTIONAL POTENTIAL (scf)
    LDA:                               Exchange only                           == Not Default ==
    Gradient Corrections:              Becke88 LYP                             == Not Default ==

 SPIN  (restricted / unrestr.)
    Molecule:                          Restricted                               
    Fragments:                         Restricted                               

 OTHER ASPECTS
    Relativistic Corrections:          scalar (ZORA,MAPA)                       

    Nuclear Charge Density Model:      Point Charge Nuclei                      
    Core Treatment:                    Frozen Orbital(s)                        

    Hyperfine or Zeeman Interaction:   ---                                      

 Settings for Grimme D3 dispersion correction

      damping                        BJ
      s6                          1.000
      s8                          2.700
      a1                          0.430
      a2                          4.236

 Other (technical) parameters

      alpha                      14.000
      version                         4
 


 Fragment File(s)
 ----------------
 C:
         file : /gpfs/home1/yeseo1ee/projects/eda-asm-prediction/ADF_800/adf_outputs/batch_005/qmrxn20_e2_D_E_D_D_C_B/c2_fragB_ts.results/t21.50BA88D5.C
         jobid: 0
         title: Carbon (TZ2P)
 Br:
         file : /gpfs/home1/yeseo1ee/projects/eda-asm-prediction/ADF_800/adf_outputs/batch_005/qmrxn20_e2_D_E_D_D_C_B/c2_fragB_ts.results/t21.42F58B50.Br
         jobid: 0
         title: Bromine (TZ2P)
 H:
         file : /gpfs/home1/yeseo1ee/projects/eda-asm-prediction/ADF_800/adf_outputs/batch_005/qmrxn20_e2_D_E_D_D_C_B/c2_fragB_ts.results/t21.6F35CCAB.H
         jobid: 0
         title: Hydrogen (TZ2P)
 N:
         file : /gpfs/home1/yeseo1ee/projects/eda-asm-prediction/ADF_800/adf_outputs/batch_005/qmrxn20_e2_D_E_D_D_C_B/c2_fragB_ts.results/t21.44EAA48D.N
         jobid: 0
         title: Nitrogen (TZ2P)



 ===============
 G E O M E T R Y  ***  3D  Molecule  ***
 ===============
  

 ATOMS
 =====                            X Y Z                    CHARGE
                                (Angstrom)             Nucl     +Core       At.Mass
                       --------------------------    ----------------       -------
    1  C              -0.2432   -0.0053   -0.2882      6.00      6.00       12.0000
    2  C              -0.0252   -0.0087    1.1303      6.00      6.00       12.0000
    3  Br              1.8055    0.1107   -1.3641     35.00     35.00       78.9183
    4  C              -0.8090   -1.2650   -0.9007      6.00      6.00       12.0000
    5  H              -0.1896   -2.1394   -0.7074      1.00      1.00        1.0078
    6  H              -1.8023   -1.4080   -0.4584      1.00      1.00        1.0078
    7  H              -0.9060   -1.1215   -1.9756      1.00      1.00        1.0078
    8  N              -0.9021    1.1499   -0.8589      7.00      7.00       14.0031
    9  H              -0.3442    1.9710   -0.6583      1.00      1.00        1.0078
   10  H              -1.7609    1.2168   -0.3049      1.00      1.00        1.0078
   11  C               0.5293    1.2717    1.7218      6.00      6.00       12.0000
   12  H              -0.1203    2.1269    1.5209      1.00      1.00        1.0078
   13  H               0.6041    1.1815    2.8104      1.00      1.00        1.0078
   14  H               1.5310    1.4895    1.3229      1.00      1.00        1.0078
   15  C               0.6126   -1.2489    1.7185      6.00      6.00       12.0000
   16  H               0.0567   -2.1587    1.4803      1.00      1.00        1.0078
   17  H               1.6417   -1.3729    1.3491      1.00      1.00        1.0078
   18  H               0.6507   -1.1736    2.8107      1.00      1.00        1.0078


 FRAGMENTS
 =========                                     Atoms in this Fragment     Cart. coord.s (Angstrom)
                                               -------------------------------------------------------
    1  C                                                 1  C           -0.2432   -0.0053   -0.2882
    2  C                                                 2  C           -0.0252   -0.0087    1.1303
    3  C                                                 4  C           -0.8090   -1.2650   -0.9007
    4  C                                                11  C            0.5293    1.2717    1.7218
    5  C                                                15  C            0.6126   -1.2489    1.7185
    6  Br                                                3  Br           1.8055    0.1107   -1.3641
    7  H                                                 5  H           -0.1896   -2.1394   -0.7074
    8  H                                                 6  H           -1.8023   -1.4080   -0.4584
    9  H                                                 7  H           -0.9060   -1.1215   -1.9756
   10  H                                                 9  H           -0.3442    1.9710   -0.6583
   11  H                                                10  H           -1.7609    1.2168   -0.3049
   12  H                                                12  H           -0.1203    2.1269    1.5209
   13  H                                                13  H            0.6041    1.1815    2.8104
   14  H                                                14  H            1.5310    1.4895    1.3229
   15  H                                                16  H            0.0567   -2.1587    1.4803
   16  H                                                17  H            1.6417   -1.3729    1.3491
   17  H                                                18  H            0.6507   -1.1736    2.8107
   18  N                                                 8  N           -0.9021    1.1499   -0.8589


 Interatomic Distance Matrix (Angstrom)
 --------------------------------------

   1)     0.000
   2)     1.435   0.000
   3)     2.317   3.096   0.000
   4)     1.511   2.514   2.990   0.000
   5)     2.175   2.819   3.078   1.089   0.000
   6)     2.104   2.764   4.018   1.097   1.788   0.000
   7)     2.129   3.415   3.040   1.089   1.777   1.785   0.000
   8)     1.447   2.463   2.944   2.417   3.369   2.741   2.531   0.000
   9)     2.013   2.687   2.929   3.278   4.114   3.686   3.408   1.013   0.000
  10)     1.949   2.564   3.881   2.724   3.728   2.630   2.998   1.024   1.643   0.000
  11)     2.503   1.516   3.535   3.886   4.249   4.168   4.632   2.954   2.630   3.059
          0.000
  12)     2.799   2.173   4.012   4.224   4.814   4.387   4.837   2.689   2.196   2.618
          1.093   0.000
  13)     3.425   2.153   4.474   4.664   4.902   4.815   5.522   3.966   3.682   3.911
          1.095   1.755   0.000
  14)     2.824   2.169   3.033   4.244   4.500   4.762   4.862   3.286   2.770   3.682
          1.100   1.781   1.779   0.000
  15)     2.511   1.514   3.574   2.980   2.706   3.255   3.996   3.833   4.115   3.976
          2.522   3.460   2.664   2.915   0.000
  16)     2.803   2.180   4.037   2.687   2.202   2.789   3.734   4.164   4.668   4.229
          3.471   4.289   3.637   3.938   1.093   0.000
  17)     2.847   2.165   3.097   3.329   2.858   3.890   4.196   4.208   4.377   4.585
          2.893   3.922   3.120   2.865   1.100   1.774   0.000
  18)     3.430   2.154   4.518   3.989   3.744   4.094   5.033   4.613   4.787   4.608
          2.680   3.626   2.356   3.175   1.095   1.759   1.777   0.000

 Min. Distance =    1.0128
 Max. Distance =    5.5218



 =====================================
 S Y M M E T R Y ,   E L E C T R O N S
 =====================================
  
 Symmetry: NOSYM

 Irreducible Representations, including subspecies
 -------------------------------------------------
 A


 Configuration of Valence Electrons
 ==================================
 ( determined in the SCF procedure )

 Total:   83

 ===============
 W A R N I N G :
 ===============

 The number of electrons does not correspond to doubly occupied orbitals,
 i.e. there would be one orbital with 0.5-alpha and 0.5-beta electrons.

 Normally, this corresponds to a doublet that should be treated within
 the UNRESTRICTED framework. For example, for a doublet:

   CHARGE   0.0 1.0
   Unrestricted

 See the online manual (http://www.scm.com) for more information on
 how to use the UNRESTRICTED framework.

 If you are definitely certain that for this job the restricted open-shell
 is appropriate, you can overcome this warning by placing on input:
   ALLOW ROKS

 In case of doubt, contact support@scm.com with this problem.

 Net Charge: 0 (Nuclei minus Electrons)

 Aufbau principle for MO occupations will be applied through SCF cycle no.     100
 Thereafter, the program will assign electrons to MOs that are spatially
 similar to the occupied MOs in a "reference" cycle ("KeepOrbitals").
 The reference cycle is always the PREVIOUS cycle: it will evolve with
 the SCF procedure.
 ***************************************************************************************************



                                      ****************************************
                                      *  B U I L D : (Fragments, Functions)  *
                                      ****************************************
  



 =======
 S F O s  ***  (Symmetrized Fragment Orbitals)  ***
 =======
  
 SFOs are linear combinations of (valence) Fragment Orbitals (FOs), such that the SFOs transform as the
 irreducible representations of the (molecular) symmetry group. Each SFO is therefore characterized by
 an irrep of the molecule and by a few (or only one) generating FOs.
 The SFOs constitute a symmetry-adapted basis for the Fock matrix. The MO eigenvector coefficients in
 this basis provide a direct interpretation of the MOs in terms of Frontier Orbital Theory.

 The SFOs are combined with auxiliary Core Functions (CFs) to ensure orthogonalization on the (frozen)
 Core Orbitals (COs). The Core-orthogonalized SFOs (CSFOs) constitute the true Fock basis.

 The FOs, and hence also the (C)SFOs are combinations of the elementary basis functions (BAS). The basis
 functions that participate in the description of the SFOs depend on the irrep. The indices of the
 involved functions are printed below for each irrep.
 (The complete list of primitive basis functions is printed in another section)

 Total nr. of (C)SFOs (summation over all irreps) :   333

 NOTE: a (C)SFO that is defined as a combination of more than one FO is usually NOT normalized.



                                       === A ===
 Nr. of SFOs :  333
 Cartesian basis functions that participate in this irrep (total number =   375) :
      1     2     3     4     5     6     9    12     7    10
     13     8    11    14    15    16    17    18    19    20
     21    22    23    24    25    26    27    28    29    30
     31    32    33    34    35    36    39    42    37    40
     43    38    41    44    45    46    47    48    49    50
     51    52    53    54    55    56    57    58    59    60
     61    62    63    64    65    66    69    72    67    70
     73    68    71    74    75    76    77    78    79    80
     81    82    83    84    85    86    87    88    89    90
     91    92    93    94    95    96    99   102    97   100
    103    98   101   104   105   106   107   108   109   110
    111   112   113   114   115   116   117   118   119   120
    121   122   123   124   125   126   129   132   127   130
    133   128   131   134   135   136   137   138   139   140
    141   142   143   144   145   146   147   148   149   150
    151   152   153   160   161   186   187   188   154   157
    162   165   189   192   195   155   158   163   166   190
    193   196   156   159   164   167   191   194   197   168
    174   180   198   169   175   181   199   170   176   182
    200   171   177   183   201   172   178   184   202   173
    179   185   203   204   205   206   207   208   209   210
    211   212   213   214   215   216   217   218   219   220
    221   222   223   224   225   226   227   228   229   230
    231   232   233   234   235   236   237   238   239   240
    241   242   243   244   245   246   247   248   249   250
    251   252   253   254   255   256   257   258   259   260
    261   262   263   264   265   266   267   268   269   270
    271   272   273   274   275   276   277   278   279   280
    281   282   283   284   285   286   287   288   289   290
    291   292   293   294   295   296   297   298   299   300
    301   302   303   304   305   306   307   308   309   310
    311   312   313   314   315   316   317   318   319   320
    321   322   323   324   325   326   327   328   329   330
    331   332   333   334   335   336   337   338   339   340
    341   342   343   344   345   346   347   348   349   350
    351   354   357   352   355   358   353   356   359   360
    361   362   363   364   365   366   367   368   369   370
    371   372   373   374   375

    SFO  (index         Fragment          Generating    Expansion in Fragment Orbitals
  indx  incl.CFs)   Occup   Orb.Energy   FragmentType  Coeff.   Orbital     on Fragment
 --------------------------------------------------------------------------------------
     1       1      2.000     -10.066 au  C             1.00      1 S               1
                        (    -273.921 eV)
     2       2      2.000      -0.501 au  C             1.00      2 S               1
                        (     -13.620 eV)
     3       3       --         0.373 au  C             1.00      3 S               1
                        (      10.158 eV)
     4       4       --         5.405 au  C             1.00      4 S               1
                        (     147.073 eV)
     5       5       --        49.848 au  C             1.00      5 S               1
                        (    1356.422 eV)
     6       6      0.667      -0.193 au  C             1.00      1 P:x             1
                        (      -5.239 eV)
     7       7       --         0.169 au  C             1.00      2 P:x             1
                        (       4.589 eV)
     8       8       --         2.013 au  C             1.00      3 P:x             1
                        (      54.789 eV)
     9       9      0.667      -0.193 au  C             1.00      1 P:y             1
                        (      -5.239 eV)
    10      10       --         0.169 au  C             1.00      2 P:y             1
                        (       4.589 eV)
    11      11       --         2.013 au  C             1.00      3 P:y             1
                        (      54.789 eV)
    12      12      0.667      -0.193 au  C             1.00      1 P:z             1
                        (      -5.239 eV)
    13      13       --         0.169 au  C             1.00      2 P:z             1
                        (       4.589 eV)
    14      14       --         2.013 au  C             1.00      3 P:z             1
                        (      54.789 eV)
    15      15       --         1.243 au  C             1.00      1 D:z2            1
                        (      33.824 eV)
    16      16       --         1.243 au  C             1.00      1 D:x2-y2         1
                        (      33.824 eV)
    17      17       --         1.243 au  C             1.00      1 D:xy            1
                        (      33.824 eV)
    18      18       --         1.243 au  C             1.00      1 D:xz            1
                        (      33.824 eV)
    19      19       --         1.243 au  C             1.00      1 D:yz            1
                        (      33.824 eV)
    20      20       --         4.016 au  C             1.00      1 F:z3            1
                        (     109.271 eV)
    21      21       --         4.016 au  C             1.00      1 F:z             1
                        (     109.271 eV)
    22      22       --         4.016 au  C             1.00      1 F:xyz           1
                        (     109.271 eV)
    23      23       --         4.016 au  C             1.00      1 F:z2x           1
                        (     109.271 eV)
    24      24       --         4.016 au  C             1.00      1 F:z2y           1
                        (     109.271 eV)
    25      25       --         4.016 au  C             1.00      1 F:x             1
                        (     109.271 eV)
    26      26       --         4.016 au  C             1.00      1 F:y             1
                        (     109.271 eV)
    27      27      2.000     -10.066 au  C             1.00      1 S               2
                        (    -273.921 eV)
    28      28      2.000      -0.501 au  C             1.00      2 S               2
                        (     -13.620 eV)
    29      29       --         0.373 au  C             1.00      3 S               2
                        (      10.158 eV)
    30      30       --         5.405 au  C             1.00      4 S               2
                        (     147.073 eV)
    31      31       --        49.848 au  C             1.00      5 S               2
                        (    1356.422 eV)
    32      32      0.667      -0.193 au  C             1.00      1 P:x             2
                        (      -5.239 eV)
    33      33       --         0.169 au  C             1.00      2 P:x             2
                        (       4.589 eV)
    34      34       --         2.013 au  C             1.00      3 P:x             2
                        (      54.789 eV)
    35      35      0.667      -0.193 au  C             1.00      1 P:y             2
                        (      -5.239 eV)
    36      36       --         0.169 au  C             1.00      2 P:y             2
                        (       4.589 eV)
    37      37       --         2.013 au  C             1.00      3 P:y             2
                        (      54.789 eV)
    38      38      0.667      -0.193 au  C             1.00      1 P:z             2
                        (      -5.239 eV)
    39      39       --         0.169 au  C             1.00      2 P:z             2
                        (       4.589 eV)
    40      40       --         2.013 au  C             1.00      3 P:z             2
                        (      54.789 eV)
    41      41       --         1.243 au  C             1.00      1 D:z2            2
                        (      33.824 eV)
    42      42       --         1.243 au  C             1.00      1 D:x2-y2         2
                        (      33.824 eV)
    43      43       --         1.243 au  C             1.00      1 D:xy            2
                        (      33.824 eV)
    44      44       --         1.243 au  C             1.00      1 D:xz            2
                        (      33.824 eV)
    45      45       --         1.243 au  C             1.00      1 D:yz            2
                        (      33.824 eV)
    46      46       --         4.016 au  C             1.00      1 F:z3            2
                        (     109.271 eV)
    47      47       --         4.016 au  C             1.00      1 F:z             2
                        (     109.271 eV)
    48      48       --         4.016 au  C             1.00      1 F:xyz           2
                        (     109.271 eV)
    49      49       --         4.016 au  C             1.00      1 F:z2x           2
                        (     109.271 eV)
    50      50       --         4.016 au  C             1.00      1 F:z2y           2
                        (     109.271 eV)
    51      51       --         4.016 au  C             1.00      1 F:x             2
                        (     109.271 eV)
    52      52       --         4.016 au  C             1.00      1 F:y             2
                        (     109.271 eV)
    53      53      2.000     -10.066 au  C             1.00      1 S               3
                        (    -273.921 eV)
    54      54      2.000      -0.501 au  C             1.00      2 S               3
                        (     -13.620 eV)
    55      55       --         0.373 au  C             1.00      3 S               3
                        (      10.158 eV)
    56      56       --         5.405 au  C             1.00      4 S               3
                        (     147.073 eV)
    57      57       --        49.848 au  C             1.00      5 S               3
                        (    1356.422 eV)
    58      58      0.667      -0.193 au  C             1.00      1 P:x             3
                        (      -5.239 eV)
    59      59       --         0.169 au  C             1.00      2 P:x             3
                        (       4.589 eV)
    60      60       --         2.013 au  C             1.00      3 P:x             3
                        (      54.789 eV)
    61      61      0.667      -0.193 au  C             1.00      1 P:y             3
                        (      -5.239 eV)
    62      62       --         0.169 au  C             1.00      2 P:y             3
                        (       4.589 eV)
    63      63       --         2.013 au  C             1.00      3 P:y             3
                        (      54.789 eV)
    64      64      0.667      -0.193 au  C             1.00      1 P:z             3
                        (      -5.239 eV)
    65      65       --         0.169 au  C             1.00      2 P:z             3
                        (       4.589 eV)
    66      66       --         2.013 au  C             1.00      3 P:z             3
                        (      54.789 eV)
    67      67       --         1.243 au  C             1.00      1 D:z2            3
                        (      33.824 eV)
    68      68       --         1.243 au  C             1.00      1 D:x2-y2         3
                        (      33.824 eV)
    69      69       --         1.243 au  C             1.00      1 D:xy            3
                        (      33.824 eV)
    70      70       --         1.243 au  C             1.00      1 D:xz            3
                        (      33.824 eV)
    71      71       --         1.243 au  C             1.00      1 D:yz            3
                        (      33.824 eV)
    72      72       --         4.016 au  C             1.00      1 F:z3            3
                        (     109.271 eV)
    73      73       --         4.016 au  C             1.00      1 F:z             3
                        (     109.271 eV)
    74      74       --         4.016 au  C             1.00      1 F:xyz           3
                        (     109.271 eV)
    75      75       --         4.016 au  C             1.00      1 F:z2x           3
                        (     109.271 eV)
    76      76       --         4.016 au  C             1.00      1 F:z2y           3
                        (     109.271 eV)
    77      77       --         4.016 au  C             1.00      1 F:x             3
                        (     109.271 eV)
    78      78       --         4.016 au  C             1.00      1 F:y             3
                        (     109.271 eV)
    79      79      2.000     -10.066 au  C             1.00      1 S               4
                        (    -273.921 eV)
    80      80      2.000      -0.501 au  C             1.00      2 S               4
                        (     -13.620 eV)
    81      81       --         0.373 au  C             1.00      3 S               4
                        (      10.158 eV)
    82      82       --         5.405 au  C             1.00      4 S               4
                        (     147.073 eV)
    83      83       --        49.848 au  C             1.00      5 S               4
                        (    1356.422 eV)
    84      84      0.667      -0.193 au  C             1.00      1 P:x             4
                        (      -5.239 eV)
    85      85       --         0.169 au  C             1.00      2 P:x             4
                        (       4.589 eV)
    86      86       --         2.013 au  C             1.00      3 P:x             4
                        (      54.789 eV)
    87      87      0.667      -0.193 au  C             1.00      1 P:y             4
                        (      -5.239 eV)
    88      88       --         0.169 au  C             1.00      2 P:y             4
                        (       4.589 eV)
    89      89       --         2.013 au  C             1.00      3 P:y             4
                        (      54.789 eV)
    90      90      0.667      -0.193 au  C             1.00      1 P:z             4
                        (      -5.239 eV)
    91      91       --         0.169 au  C             1.00      2 P:z             4
                        (       4.589 eV)
    92      92       --         2.013 au  C             1.00      3 P:z             4
                        (      54.789 eV)
    93      93       --         1.243 au  C             1.00      1 D:z2            4
                        (      33.824 eV)
    94      94       --         1.243 au  C             1.00      1 D:x2-y2         4
                        (      33.824 eV)
    95      95       --         1.243 au  C             1.00      1 D:xy            4
                        (      33.824 eV)
    96      96       --         1.243 au  C             1.00      1 D:xz            4
                        (      33.824 eV)
    97      97       --         1.243 au  C             1.00      1 D:yz            4
                        (      33.824 eV)
    98      98       --         4.016 au  C             1.00      1 F:z3            4
                        (     109.271 eV)
    99      99       --         4.016 au  C             1.00      1 F:z             4
                        (     109.271 eV)
   100     100       --         4.016 au  C             1.00      1 F:xyz           4
                        (     109.271 eV)
   101     101       --         4.016 au  C             1.00      1 F:z2x           4
                        (     109.271 eV)
   102     102       --         4.016 au  C             1.00      1 F:z2y           4
                        (     109.271 eV)
   103     103       --         4.016 au  C             1.00      1 F:x             4
                        (     109.271 eV)
   104     104       --         4.016 au  C             1.00      1 F:y             4
                        (     109.271 eV)
   105     105      2.000     -10.066 au  C             1.00      1 S               5
                        (    -273.921 eV)
   106     106      2.000      -0.501 au  C             1.00      2 S               5
                        (     -13.620 eV)
   107     107       --         0.373 au  C             1.00      3 S               5
                        (      10.158 eV)
   108     108       --         5.405 au  C             1.00      4 S               5
                        (     147.073 eV)
   109     109       --        49.848 au  C             1.00      5 S               5
                        (    1356.422 eV)
   110     110      0.667      -0.193 au  C             1.00      1 P:x             5
                        (      -5.239 eV)
   111     111       --         0.169 au  C             1.00      2 P:x             5
                        (       4.589 eV)
   112     112       --         2.013 au  C             1.00      3 P:x             5
                        (      54.789 eV)
   113     113      0.667      -0.193 au  C             1.00      1 P:y             5
                        (      -5.239 eV)
   114     114       --         0.169 au  C             1.00      2 P:y             5
                        (       4.589 eV)
   115     115       --         2.013 au  C             1.00      3 P:y             5
                        (      54.789 eV)
   116     116      0.667      -0.193 au  C             1.00      1 P:z             5
                        (      -5.239 eV)
   117     117       --         0.169 au  C             1.00      2 P:z             5
                        (       4.589 eV)
   118     118       --         2.013 au  C             1.00      3 P:z             5
                        (      54.789 eV)
   119     119       --         1.243 au  C             1.00      1 D:z2            5
                        (      33.824 eV)
   120     120       --         1.243 au  C             1.00      1 D:x2-y2         5
                        (      33.824 eV)
   121     121       --         1.243 au  C             1.00      1 D:xy            5
                        (      33.824 eV)
   122     122       --         1.243 au  C             1.00      1 D:xz            5
                        (      33.824 eV)
   123     123       --         1.243 au  C             1.00      1 D:yz            5
                        (      33.824 eV)
   124     124       --         4.016 au  C             1.00      1 F:z3            5
                        (     109.271 eV)
   125     125       --         4.016 au  C             1.00      1 F:z             5
                        (     109.271 eV)
   126     126       --         4.016 au  C             1.00      1 F:xyz           5
                        (     109.271 eV)
   127     127       --         4.016 au  C             1.00      1 F:z2x           5
                        (     109.271 eV)
   128     128       --         4.016 au  C             1.00      1 F:z2y           5
                        (     109.271 eV)
   129     129       --         4.016 au  C             1.00      1 F:x             5
                        (     109.271 eV)
   130     130       --         4.016 au  C             1.00      1 F:y             5
                        (     109.271 eV)
   131     131      2.000    -488.642 au  Br            1.00      1 S               6
                        (  -13296.634 eV)
   132     132      2.000     -63.585 au  Br            1.00      2 S               6
                        (   -1730.246 eV)
   133     133      2.000      -8.709 au  Br            1.00      3 S               6
                        (    -236.987 eV)
   134     134      2.000      -0.733 au  Br            1.00      4 S               6
                        (     -19.946 eV)
   135     135       --         0.224 au  Br            1.00      5 S               6
                        (       6.099 eV)
   136     136       --         2.414 au  Br            1.00      6 S               6
                        (      65.683 eV)
   137     137       --        13.546 au  Br            1.00      7 S               6
                        (     368.609 eV)
   138     138       --       615.209 au  Br            1.00      8 S               6
                        (   16740.684 eV)
   139     139      2.000     -56.116 au  Br            1.00      1 P:x             6
                        (   -1526.987 eV)
   140     140      2.000      -6.365 au  Br            1.00      2 P:x             6
                        (    -173.205 eV)
   141     141      1.667      -0.284 au  Br            1.00      3 P:x             6
                        (      -7.716 eV)
   142     142       --         0.137 au  Br            1.00      4 P:x             6
                        (       3.720 eV)
   143     143       --         1.208 au  Br            1.00      5 P:x             6
                        (      32.874 eV)
   144     144       --         8.734 au  Br            1.00      6 P:x             6
                        (     237.661 eV)
   145     145       --        95.627 au  Br            1.00      7 P:x             6
                        (    2602.141 eV)
   146     146      2.000     -56.116 au  Br            1.00      1 P:y             6
                        (   -1526.987 eV)
   147     147      2.000      -6.365 au  Br            1.00      2 P:y             6
                        (    -173.205 eV)
   148     148      1.667      -0.284 au  Br            1.00      3 P:y             6
                        (      -7.716 eV)
   149     149       --         0.137 au  Br            1.00      4 P:y             6
                        (       3.720 eV)
   150     150       --         1.208 au  Br            1.00      5 P:y             6
                        (      32.874 eV)
   151     151       --         8.734 au  Br            1.00      6 P:y             6
                        (     237.661 eV)
   152     152       --        95.627 au  Br            1.00      7 P:y             6
                        (    2602.141 eV)
   153     153      2.000     -56.116 au  Br            1.00      1 P:z             6
                        (   -1526.987 eV)
   154     154      2.000      -6.365 au  Br            1.00      2 P:z             6
                        (    -173.205 eV)
   155     155      1.667      -0.284 au  Br            1.00      3 P:z             6
                        (      -7.716 eV)
   156     156       --         0.137 au  Br            1.00      4 P:z             6
                        (       3.720 eV)
   157     157       --         1.208 au  Br            1.00      5 P:z             6
                        (      32.874 eV)
   158     158       --         8.734 au  Br            1.00      6 P:z             6
                        (     237.661 eV)
   159     159       --        95.627 au  Br            1.00      7 P:z             6
                        (    2602.141 eV)
   160     160      2.000      -2.452 au  Br            1.00      1 D:z2            6
                        (     -66.719 eV)
   161     161       --         0.270 au  Br            1.00      2 D:z2            6
                        (       7.341 eV)
   162     162       --         2.706 au  Br            1.00      3 D:z2            6
                        (      73.633 eV)
   163     163       --        20.525 au  Br            1.00      4 D:z2            6
                        (     558.519 eV)
   164     164      2.000      -2.452 au  Br            1.00      1 D:x2-y2         6
                        (     -66.719 eV)
   165     165       --         0.270 au  Br            1.00      2 D:x2-y2         6
                        (       7.341 eV)
   166     166       --         2.706 au  Br            1.00      3 D:x2-y2         6
                        (      73.633 eV)
   167     167       --        20.525 au  Br            1.00      4 D:x2-y2         6
                        (     558.519 eV)
   168     168      2.000      -2.452 au  Br            1.00      1 D:xy            6
                        (     -66.719 eV)
   169     169       --         0.270 au  Br            1.00      2 D:xy            6
                        (       7.341 eV)
   170     170       --         2.706 au  Br            1.00      3 D:xy            6
                        (      73.633 eV)
   171     171       --        20.525 au  Br            1.00      4 D:xy            6
                        (     558.519 eV)
   172     172      2.000      -2.452 au  Br            1.00      1 D:xz            6
                        (     -66.719 eV)
   173     173       --         0.270 au  Br            1.00      2 D:xz            6
                        (       7.341 eV)
   174     174       --         2.706 au  Br            1.00      3 D:xz            6
                        (      73.633 eV)
   175     175       --        20.525 au  Br            1.00      4 D:xz            6
                        (     558.519 eV)
   176     176      2.000      -2.452 au  Br            1.00      1 D:yz            6
                        (     -66.719 eV)
   177     177       --         0.270 au  Br            1.00      2 D:yz            6
                        (       7.341 eV)
   178     178       --         2.706 au  Br            1.00      3 D:yz            6
                        (      73.633 eV)
   179     179       --        20.525 au  Br            1.00      4 D:yz            6
                        (     558.519 eV)
   180     180       --         0.857 au  Br            1.00      1 F:z3            6
                        (      23.313 eV)
   181     181       --         0.857 au  Br            1.00      1 F:z             6
                        (      23.313 eV)
   182     182       --         0.857 au  Br            1.00      1 F:xyz           6
                        (      23.313 eV)
   183     183       --         0.857 au  Br            1.00      1 F:z2x           6
                        (      23.313 eV)
   184     184       --         0.857 au  Br            1.00      1 F:z2y           6
                        (      23.313 eV)
   185     185       --         0.857 au  Br            1.00      1 F:x             6
                        (      23.313 eV)
   186     186       --         0.857 au  Br            1.00      1 F:y             6
                        (      23.313 eV)
   187     187      1.000      -0.240 au  H             1.00      1 S               7
                        (      -6.532 eV)
   188     188       --         0.088 au  H             1.00      2 S               7
                        (       2.394 eV)
   189     189       --         1.502 au  H             1.00      3 S               7
                        (      40.869 eV)
   190     190       --         0.406 au  H             1.00      1 P:x             7
                        (      11.051 eV)
   191     191       --         0.406 au  H             1.00      1 P:y             7
                        (      11.051 eV)
   192     192       --         0.406 au  H             1.00      1 P:z             7
                        (      11.051 eV)
   193     193       --         2.569 au  H             1.00      1 D:z2            7
                        (      69.917 eV)
   194     194       --         2.569 au  H             1.00      1 D:x2-y2         7
                        (      69.917 eV)
   195     195       --         2.569 au  H             1.00      1 D:xy            7
                        (      69.917 eV)
   196     196       --         2.569 au  H             1.00      1 D:xz            7
                        (      69.917 eV)
   197     197       --         2.569 au  H             1.00      1 D:yz            7
                        (      69.917 eV)
   198     198      1.000      -0.240 au  H             1.00      1 S               8
                        (      -6.532 eV)
   199     199       --         0.088 au  H             1.00      2 S               8
                        (       2.394 eV)
   200     200       --         1.502 au  H             1.00      3 S               8
                        (      40.869 eV)
   201     201       --         0.406 au  H             1.00      1 P:x             8
                        (      11.051 eV)
   202     202       --         0.406 au  H             1.00      1 P:y             8
                        (      11.051 eV)
   203     203       --         0.406 au  H             1.00      1 P:z             8
                        (      11.051 eV)
   204     204       --         2.569 au  H             1.00      1 D:z2            8
                        (      69.917 eV)
   205     205       --         2.569 au  H             1.00      1 D:x2-y2         8
                        (      69.917 eV)
   206     206       --         2.569 au  H             1.00      1 D:xy            8
                        (      69.917 eV)
   207     207       --         2.569 au  H             1.00      1 D:xz            8
                        (      69.917 eV)
   208     208       --         2.569 au  H             1.00      1 D:yz            8
                        (      69.917 eV)
   209     209      1.000      -0.240 au  H             1.00      1 S               9
                        (      -6.532 eV)
   210     210       --         0.088 au  H             1.00      2 S               9
                        (       2.394 eV)
   211     211       --         1.502 au  H             1.00      3 S               9
                        (      40.869 eV)
   212     212       --         0.406 au  H             1.00      1 P:x             9
                        (      11.051 eV)
   213     213       --         0.406 au  H             1.00      1 P:y             9
                        (      11.051 eV)
   214     214       --         0.406 au  H             1.00      1 P:z             9
                        (      11.051 eV)
   215     215       --         2.569 au  H             1.00      1 D:z2            9
                        (      69.917 eV)
   216     216       --         2.569 au  H             1.00      1 D:x2-y2         9
                        (      69.917 eV)
   217     217       --         2.569 au  H             1.00      1 D:xy            9
                        (      69.917 eV)
   218     218       --         2.569 au  H             1.00      1 D:xz            9
                        (      69.917 eV)
   219     219       --         2.569 au  H             1.00      1 D:yz            9
                        (      69.917 eV)
   220     220      1.000      -0.240 au  H             1.00      1 S              10
                        (      -6.532 eV)
   221     221       --         0.088 au  H             1.00      2 S              10
                        (       2.394 eV)
   222     222       --         1.502 au  H             1.00      3 S              10
                        (      40.869 eV)
   223     223       --         0.406 au  H             1.00      1 P:x            10
                        (      11.051 eV)
   224     224       --         0.406 au  H             1.00      1 P:y            10
                        (      11.051 eV)
   225     225       --         0.406 au  H             1.00      1 P:z            10
                        (      11.051 eV)
   226     226       --         2.569 au  H             1.00      1 D:z2           10
                        (      69.917 eV)
   227     227       --         2.569 au  H             1.00      1 D:x2-y2        10
                        (      69.917 eV)
   228     228       --         2.569 au  H             1.00      1 D:xy           10
                        (      69.917 eV)
   229     229       --         2.569 au  H             1.00      1 D:xz           10
                        (      69.917 eV)
   230     230       --         2.569 au  H             1.00      1 D:yz           10
                        (      69.917 eV)
   231     231      1.000      -0.240 au  H             1.00      1 S              11
                        (      -6.532 eV)
   232     232       --         0.088 au  H             1.00      2 S              11
                        (       2.394 eV)
   233     233       --         1.502 au  H             1.00      3 S              11
                        (      40.869 eV)
   234     234       --         0.406 au  H             1.00      1 P:x            11
                        (      11.051 eV)
   235     235       --         0.406 au  H             1.00      1 P:y            11
                        (      11.051 eV)
   236     236       --         0.406 au  H             1.00      1 P:z            11
                        (      11.051 eV)
   237     237       --         2.569 au  H             1.00      1 D:z2           11
                        (      69.917 eV)
   238     238       --         2.569 au  H             1.00      1 D:x2-y2        11
                        (      69.917 eV)
   239     239       --         2.569 au  H             1.00      1 D:xy           11
                        (      69.917 eV)
   240     240       --         2.569 au  H             1.00      1 D:xz           11
                        (      69.917 eV)
   241     241       --         2.569 au  H             1.00      1 D:yz           11
                        (      69.917 eV)
   242     242      1.000      -0.240 au  H             1.00      1 S              12
                        (      -6.532 eV)
   243     243       --         0.088 au  H             1.00      2 S              12
                        (       2.394 eV)
   244     244       --         1.502 au  H             1.00      3 S              12
                        (      40.869 eV)
   245     245       --         0.406 au  H             1.00      1 P:x            12
                        (      11.051 eV)
   246     246       --         0.406 au  H             1.00      1 P:y            12
                        (      11.051 eV)
   247     247       --         0.406 au  H             1.00      1 P:z            12
                        (      11.051 eV)
   248     248       --         2.569 au  H             1.00      1 D:z2           12
                        (      69.917 eV)
   249     249       --         2.569 au  H             1.00      1 D:x2-y2        12
                        (      69.917 eV)
   250     250       --         2.569 au  H             1.00      1 D:xy           12
                        (      69.917 eV)
   251     251       --         2.569 au  H             1.00      1 D:xz           12
                        (      69.917 eV)
   252     252       --         2.569 au  H             1.00      1 D:yz           12
                        (      69.917 eV)
   253     253      1.000      -0.240 au  H             1.00      1 S              13
                        (      -6.532 eV)
   254     254       --         0.088 au  H             1.00      2 S              13
                        (       2.394 eV)
   255     255       --         1.502 au  H             1.00      3 S              13
                        (      40.869 eV)
   256     256       --         0.406 au  H             1.00      1 P:x            13
                        (      11.051 eV)
   257     257       --         0.406 au  H             1.00      1 P:y            13
                        (      11.051 eV)
   258     258       --         0.406 au  H             1.00      1 P:z            13
                        (      11.051 eV)
   259     259       --         2.569 au  H             1.00      1 D:z2           13
                        (      69.917 eV)
   260     260       --         2.569 au  H             1.00      1 D:x2-y2        13
                        (      69.917 eV)
   261     261       --         2.569 au  H             1.00      1 D:xy           13
                        (      69.917 eV)
   262     262       --         2.569 au  H             1.00      1 D:xz           13
                        (      69.917 eV)
   263     263       --         2.569 au  H             1.00      1 D:yz           13
                        (      69.917 eV)
   264     264      1.000      -0.240 au  H             1.00      1 S              14
                        (      -6.532 eV)
   265     265       --         0.088 au  H             1.00      2 S              14
                        (       2.394 eV)
   266     266       --         1.502 au  H             1.00      3 S              14
                        (      40.869 eV)
   267     267       --         0.406 au  H             1.00      1 P:x            14
                        (      11.051 eV)
   268     268       --         0.406 au  H             1.00      1 P:y            14
                        (      11.051 eV)
   269     269       --         0.406 au  H             1.00      1 P:z            14
                        (      11.051 eV)
   270     270       --         2.569 au  H             1.00      1 D:z2           14
                        (      69.917 eV)
   271     271       --         2.569 au  H             1.00      1 D:x2-y2        14
                        (      69.917 eV)
   272     272       --         2.569 au  H             1.00      1 D:xy           14
                        (      69.917 eV)
   273     273       --         2.569 au  H             1.00      1 D:xz           14
                        (      69.917 eV)
   274     274       --         2.569 au  H             1.00      1 D:yz           14
                        (      69.917 eV)
   275     275      1.000      -0.240 au  H             1.00      1 S              15
                        (      -6.532 eV)
   276     276       --         0.088 au  H             1.00      2 S              15
                        (       2.394 eV)
   277     277       --         1.502 au  H             1.00      3 S              15
                        (      40.869 eV)
   278     278       --         0.406 au  H             1.00      1 P:x            15
                        (      11.051 eV)
   279     279       --         0.406 au  H             1.00      1 P:y            15
                        (      11.051 eV)
   280     280       --         0.406 au  H             1.00      1 P:z            15
                        (      11.051 eV)
   281     281       --         2.569 au  H             1.00      1 D:z2           15
                        (      69.917 eV)
   282     282       --         2.569 au  H             1.00      1 D:x2-y2        15
                        (      69.917 eV)
   283     283       --         2.569 au  H             1.00      1 D:xy           15
                        (      69.917 eV)
   284     284       --         2.569 au  H             1.00      1 D:xz           15
                        (      69.917 eV)
   285     285       --         2.569 au  H             1.00      1 D:yz           15
                        (      69.917 eV)
   286     286      1.000      -0.240 au  H             1.00      1 S              16
                        (      -6.532 eV)
   287     287       --         0.088 au  H             1.00      2 S              16
                        (       2.394 eV)
   288     288       --         1.502 au  H             1.00      3 S              16
                        (      40.869 eV)
   289     289       --         0.406 au  H             1.00      1 P:x            16
                        (      11.051 eV)
   290     290       --         0.406 au  H             1.00      1 P:y            16
                        (      11.051 eV)
   291     291       --         0.406 au  H             1.00      1 P:z            16
                        (      11.051 eV)
   292     292       --         2.569 au  H             1.00      1 D:z2           16
                        (      69.917 eV)
   293     293       --         2.569 au  H             1.00      1 D:x2-y2        16
                        (      69.917 eV)
   294     294       --         2.569 au  H             1.00      1 D:xy           16
                        (      69.917 eV)
   295     295       --         2.569 au  H             1.00      1 D:xz           16
                        (      69.917 eV)
   296     296       --         2.569 au  H             1.00      1 D:yz           16
                        (      69.917 eV)
   297     297      1.000      -0.240 au  H             1.00      1 S              17
                        (      -6.532 eV)
   298     298       --         0.088 au  H             1.00      2 S              17
                        (       2.394 eV)
   299     299       --         1.502 au  H             1.00      3 S              17
                        (      40.869 eV)
   300     300       --         0.406 au  H             1.00      1 P:x            17
                        (      11.051 eV)
   301     301       --         0.406 au  H             1.00      1 P:y            17
                        (      11.051 eV)
   302     302       --         0.406 au  H             1.00      1 P:z            17
                        (      11.051 eV)
   303     303       --         2.569 au  H             1.00      1 D:z2           17
                        (      69.917 eV)
   304     304       --         2.569 au  H             1.00      1 D:x2-y2        17
                        (      69.917 eV)
   305     305       --         2.569 au  H             1.00      1 D:xy           17
                        (      69.917 eV)
   306     306       --         2.569 au  H             1.00      1 D:xz           17
                        (      69.917 eV)
   307     307       --         2.569 au  H             1.00      1 D:yz           17
                        (      69.917 eV)
   308     308      2.000     -14.160 au  N             1.00      1 S              18
                        (    -385.319 eV)
   309     309      2.000      -0.678 au  N             1.00      2 S              18
                        (     -18.450 eV)
   310     310       --         0.517 au  N             1.00      3 S              18
                        (      14.073 eV)
   311     311       --         6.872 au  N             1.00      4 S              18
                        (     186.990 eV)
   312     312       --        63.432 au  N             1.00      5 S              18
                        (    1726.082 eV)
   313     313      1.000      -0.260 au  N             1.00      1 P:x            18
                        (      -7.062 eV)
   314     314       --         0.281 au  N             1.00      2 P:x            18
                        (       7.649 eV)
   315     315       --         3.275 au  N             1.00      3 P:x            18
                        (      89.105 eV)
   316     316      1.000      -0.260 au  N             1.00      1 P:y            18
                        (      -7.062 eV)
   317     317       --         0.281 au  N             1.00      2 P:y            18
                        (       7.649 eV)
   318     318       --         3.275 au  N             1.00      3 P:y            18
                        (      89.105 eV)
   319     319      1.000      -0.260 au  N             1.00      1 P:z            18
                        (      -7.062 eV)
   320     320       --         0.281 au  N             1.00      2 P:z            18
                        (       7.649 eV)
   321     321       --         3.275 au  N             1.00      3 P:z            18
                        (      89.105 eV)
   322     322       --         1.250 au  N             1.00      1 D:z2           18
                        (      34.005 eV)
   323     323       --         1.250 au  N             1.00      1 D:x2-y2        18
                        (      34.005 eV)
   324     324       --         1.250 au  N             1.00      1 D:xy           18
                        (      34.005 eV)
   325     325       --         1.250 au  N             1.00      1 D:xz           18
                        (      34.005 eV)
   326     326       --         1.250 au  N             1.00      1 D:yz           18
                        (      34.005 eV)
   327     327       --         4.013 au  N             1.00      1 F:z3           18
                        (     109.190 eV)
   328     328       --         4.013 au  N             1.00      1 F:z            18
                        (     109.190 eV)
   329     329       --         4.013 au  N             1.00      1 F:xyz          18
                        (     109.190 eV)
   330     330       --         4.013 au  N             1.00      1 F:z2x          18
                        (     109.190 eV)
   331     331       --         4.013 au  N             1.00      1 F:z2y          18
                        (     109.190 eV)
   332     332       --         4.013 au  N             1.00      1 F:x            18
                        (     109.190 eV)
   333     333       --         4.013 au  N             1.00      1 F:y            18
                        (     109.190 eV)



 ================================
 (Slater-type)  F U N C T I O N S  ***  (Basis and Fit)  ***
 ================================
  

 Atom Type    1  (C)
 ==============

 Valence Basis Sets:  10
 -----------------------
   1 S    7.680000
   1 S    5.000000
   2 S    1.280000
   2 S    2.100000
   2 S    4.600000
   2 P    0.820000
   2 P    1.480000
   2 P    2.940000
   3 D    2.200000
   4 F    3.300000

 Atom Type    2  (Br)
 ==============

 Valence Basis Sets:  20
 -----------------------
   1 S   41.300000
   1 S   32.800000
   2 S   13.900000
   2 P   19.450000
   2 P   13.100000
   3 S    7.200000
   3 S    4.950000
   3 P    7.900000
   3 P    5.050000
   3 D   10.900000
   3 D    6.050000
   3 D    3.500000
   4 S    4.500000
   4 S    2.800000
   4 S    1.800000
   4 P    3.250000
   4 P    1.950000
   4 P    1.200000
   4 D    1.800000
   4 F    1.800000

 Atom Type    3  (H)
 ==============

 Valence Basis Sets:   5
 -----------------------
   1 S    0.690000
   1 S    0.920000
   1 S    1.580000
   2 P    1.250000
   3 D    2.500000

 Atom Type    4  (N)
 ==============

 Valence Basis Sets:  10
 -----------------------
   1 S    8.740000
   1 S    5.900000
   2 S    5.150000
   2 S    2.500000
   2 S    1.500000
   2 P    3.680000
   2 P    1.880000
   2 P    1.000000
   3 D    2.200000
   4 F    3.300000


 BAS: List of all Elementary Cartesian Basis Functions
 =====================================================

 The numbering in the list below (to the right of the function characteristics) is referred
 to in print-outs of MO eigenvectors and Mulliken populations in the BAS representation
 (as contrasted to the SFO representation).

 Notes:
 1. The functions are characterized by a polynomial prefactor (powers of x,y,z and r) and
    an exponential decay factor alpha.
 2. Since the basis sets are specific for an atom TYPE, the individual functions occur on
    all atoms of that type.
 3. The word 'Core' in the left margin signals that it is a Core Function (CF) : not a
    degree of freedom in the valence set, but only used to ensure orthogonalization of
    the other valence basis functions on the frozen Core Orbitals.


 (power of) X  Y  Z  R     Alpha  on Atom
            ==========     =====     ==========

 C                                    1    2    3    4    5
                                  ---------------------------------------------------------------------------
            0  0  0  0     7.680      1   31   61   91  121
            0  0  0  0     5.000      2   32   62   92  122
            0  0  0  1     1.280      3   33   63   93  123
            0  0  0  1     2.100      4   34   64   94  124
            0  0  0  1     4.600      5   35   65   95  125
            1  0  0  0     0.820      6   36   66   96  126
            0  1  0  0     0.820      7   37   67   97  127
            0  0  1  0     0.820      8   38   68   98  128
            1  0  0  0     1.480      9   39   69   99  129
            0  1  0  0     1.480     10   40   70  100  130
            0  0  1  0     1.480     11   41   71  101  131
            1  0  0  0     2.940     12   42   72  102  132
            0  1  0  0     2.940     13   43   73  103  133
            0  0  1  0     2.940     14   44   74  104  134
            2  0  0  0     2.200     15   45   75  105  135
            1  1  0  0     2.200     16   46   76  106  136
            1  0  1  0     2.200     17   47   77  107  137
            0  2  0  0     2.200     18   48   78  108  138
            0  1  1  0     2.200     19   49   79  109  139
            0  0  2  0     2.200     20   50   80  110  140
            3  0  0  0     3.300     21   51   81  111  141
            2  1  0  0     3.300     22   52   82  112  142
            2  0  1  0     3.300     23   53   83  113  143
            1  2  0  0     3.300     24   54   84  114  144
            1  1  1  0     3.300     25   55   85  115  145
            1  0  2  0     3.300     26   56   86  116  146
            0  3  0  0     3.300     27   57   87  117  147
            0  2  1  0     3.300     28   58   88  118  148
            0  1  2  0     3.300     29   59   89  119  149
            0  0  3  0     3.300     30   60   90  120  150

 Br                                   6
                                  ---------------------------------------------------------------------------
            0  0  0  0    41.300    151
            0  0  0  0    32.800    152
            0  0  0  1    13.900    153
            1  0  0  0    19.450    154
            0  1  0  0    19.450    155
            0  0  1  0    19.450    156
            1  0  0  0    13.100    157
            0  1  0  0    13.100    158
            0  0  1  0    13.100    159
            0  0  0  2     7.200    160
            0  0  0  2     4.950    161
            1  0  0  1     7.900    162
            0  1  0  1     7.900    163
            0  0  1  1     7.900    164
            1  0  0  1     5.050    165
            0  1  0  1     5.050    166
            0  0  1  1     5.050    167
            2  0  0  0    10.900    168
            1  1  0  0    10.900    169
            1  0  1  0    10.900    170
            0  2  0  0    10.900    171
            0  1  1  0    10.900    172
            0  0  2  0    10.900    173
            2  0  0  0     6.050    174
            1  1  0  0     6.050    175
            1  0  1  0     6.050    176
            0  2  0  0     6.050    177
            0  1  1  0     6.050    178
            0  0  2  0     6.050    179
            2  0  0  0     3.500    180
            1  1  0  0     3.500    181
            1  0  1  0     3.500    182
            0  2  0  0     3.500    183
            0  1  1  0     3.500    184
            0  0  2  0     3.500    185
            0  0  0  3     4.500    186
            0  0  0  3     2.800    187
            0  0  0  3     1.800    188
            1  0  0  2     3.250    189
            0  1  0  2     3.250    190
            0  0  1  2     3.250    191
            1  0  0  2     1.950    192
            0  1  0  2     1.950    193
            0  0  1  2     1.950    194
            1  0  0  2     1.200    195
            0  1  0  2     1.200    196
            0  0  1  2     1.200    197
            2  0  0  1     1.800    198
            1  1  0  1     1.800    199
            1  0  1  1     1.800    200
            0  2  0  1     1.800    201
            0  1  1  1     1.800    202
            0  0  2  1     1.800    203
            3  0  0  0     1.800    204
            2  1  0  0     1.800    205
            2  0  1  0     1.800    206
            1  2  0  0     1.800    207
            1  1  1  0     1.800    208
            1  0  2  0     1.800    209
            0  3  0  0     1.800    210
            0  2  1  0     1.800    211
            0  1  2  0     1.800    212
            0  0  3  0     1.800    213

 H                                    7    8    9   10   11   12   13   14   15   16   17
                                  ---------------------------------------------------------------------------
            0  0  0  0     0.690    214  226  238  250  262  274  286  298  310  322  334
            0  0  0  0     0.920    215  227  239  251  263  275  287  299  311  323  335
            0  0  0  0     1.580    216  228  240  252  264  276  288  300  312  324  336
            1  0  0  0     1.250    217  229  241  253  265  277  289  301  313  325  337
            0  1  0  0     1.250    218  230  242  254  266  278  290  302  314  326  338
            0  0  1  0     1.250    219  231  243  255  267  279  291  303  315  327  339
            2  0  0  0     2.500    220  232  244  256  268  280  292  304  316  328  340
            1  1  0  0     2.500    221  233  245  257  269  281  293  305  317  329  341
            1  0  1  0     2.500    222  234  246  258  270  282  294  306  318  330  342
            0  2  0  0     2.500    223  235  247  259  271  283  295  307  319  331  343
            0  1  1  0     2.500    224  236  248  260  272  284  296  308  320  332  344
            0  0  2  0     2.500    225  237  249  261  273  285  297  309  321  333  345

 N                                   18
                                  ---------------------------------------------------------------------------
            0  0  0  0     8.740    346
            0  0  0  0     5.900    347
            0  0  0  1     5.150    348
            0  0  0  1     2.500    349
            0  0  0  1     1.500    350
            1  0  0  0     3.680    351
            0  1  0  0     3.680    352
            0  0  1  0     3.680    353
            1  0  0  0     1.880    354
            0  1  0  0     1.880    355
            0  0  1  0     1.880    356
            1  0  0  0     1.000    357
            0  1  0  0     1.000    358
            0  0  1  0     1.000    359
            2  0  0  0     2.200    360
            1  1  0  0     2.200    361
            1  0  1  0     2.200    362
            0  2  0  0     2.200    363
            0  1  1  0     2.200    364
            0  0  2  0     2.200    365
            3  0  0  0     3.300    366
            2  1  0  0     3.300    367
            2  0  1  0     3.300    368
            1  2  0  0     3.300    369
            1  1  1  0     3.300    370
            1  0  2  0     3.300    371
            0  3  0  0     3.300    372
            0  2  1  0     3.300    373
            0  1  2  0     3.300    374
            0  0  3  0     3.300    375

 Total number of charge fitting functions (nprimf)      1224
 Total number of Cartesian basis functions (naos)        375
 Total number of Cartesian core functions  (ncos)          0

 ***************************************************************************************************



                                              ***********************
                                              *  T E C H N I C A L  *
                                              ***********************
  



 =============================================================
 P A R A L L E L I Z A T I O N  and  V E C T O R I Z A T I O N
 =============================================================
  
 Nr of parallel processes:                                1
 Maximum vector length in NumInt loops:                 128



 =====================
 S C F   U P D A T E S
 =====================
  
 Max. nr. of cycles:                               200
 Convergence criterion:                              0.0000010000
   secondary criterion:                              0.0010000000

 Mix parameter (when DIIS does not apply):           0.2000000000
 Mixed ADIIS+SDIIS will be used                  
    Max number of expansion vectors:                10
    Pure ADIIS when Max([F,P]) is above              0.1000000000
    Pure SDIIS when Max([F,P]) is below              0.0010000000
 Automatic ElectronSmearing (in case of problematic SCF convergence) disabled



 =================
 P R E C I S I O N  ***  (General: NumInt, NeglectFunctionTails, ...)  ***
 =================
  

 NumInt:           Target precision:                 4.0000000000
 -------           Initial precision:                4.0000000000
                   Min. precision (optimization):    4.0000000000

 Neglect Functions:          Basis functions:        0.1000000000E-05
 ------------------          Fit functions:          0.1000000000E-05



 ===========================
 L I N E A R   S C A L I N G
 ===========================
  

 Cut-off radii density fit:                        0.1000000000E-07
 Overlap cut-off criterion AO matrix elements:     0.1000000000E-05
 Cut-offs for Coulomb potential and fitted density:0.1000000000E-07
 Cut-off criterion for Coulomb multipole terms:    0.1000000000E-07
 Progressive Convergence parameter:                 0.000000000    
 ***************************************************************************************************



                                            ***************************
                                            *  C O M P U T A T I O N  *
                                            ***************************
  

 Number of elements of the density matrix on this node (used, total):     70500     70500



 ===========================================
 Numerical Integration : Fuzzy Cells (Becke)
 ===========================================
  
 Becke grid quality: NORMAL         
  
 Lebedev angular grid order:             min:  11 max:  23
 Nr. of radial points:                   min:  46 max:  77

 Total nr. of points:     118059
 Nr. of blocks:              923
 Block length:               128
 Nr. of dummy points:         85


 Test of Precision of the Numerical Integration Grid
 ===================================================

 Integral of the Total Core Density:                   0.00000000000000



 ========================
 Density Fitting (zlmFit)
 ========================
  
 ZlmFit Fit Quality: NORMAL         
  
 Max L-expansion:                        min:   6 max:   7
 Nr. of radial interpolation points:     min:  39 max:  72



 =====
 S C F  ***  ScaSCF  ***
 =====
  
 Initial density matrix is calculated as sum of fragments

 CYCLE    1
 SCF Error: norm([F,P])=      6.466720370623, max([F,P])=      1.246684913158
 orbitals (Q,E):
 ---------------
 A :32...52          ( 2.00    -0.5489)  ( 2.00    -0.5353)  ( 2.00    -0.5326)  ( 2.00    -0.5268)
                     ( 2.00    -0.5068)  ( 2.00    -0.4977)  ( 2.00    -0.4177)  ( 2.00    -0.3863)
                     ( 2.00    -0.2973)  ( 2.00    -0.2949)  ( 1.00    -0.2859)  ( 0.00    -0.1662)
                     ( 0.00    -0.0751)  ( 0.00    -0.0513)  ( 0.00    -0.0443)  ( 0.00    -0.0354)
                     ( 0.00    -0.0309)  ( 0.00    -0.0184)  ( 0.00    -0.0122)  ( 0.00    -0.0050)
                     ( 0.00     0.0035)

 CYCLE    2
   MIX coefficients:  0.8000  0.2000
 SCF Error: norm([F,P])=      1.368018671182, max([F,P])=      0.241442221825
 orbitals (Q,E):
 ---------------
 A :32...43          ( 2.00    -0.4755)  ( 2.00    -0.4600)  ( 2.00    -0.4570)  ( 2.00    -0.4492)
                     ( 2.00    -0.4280)  ( 2.00    -0.4123)  ( 2.00    -0.3524)  ( 2.00    -0.3223)
                     ( 2.00    -0.2926)  ( 2.00    -0.2915)  ( 1.00    -0.2433)  ( 0.00    -0.1223)

 CYCLE    3
  SDIIS (wt  0.000): -0.5677  1.5677
 A-DIIS (wt  1.000):  0.0000  1.0000
  DIIS coefficients:  0.0000  1.0000
 SCF Error: norm([F,P])=      0.651232808007, max([F,P])=      0.121336853705
 orbitals (Q,E):
 ---------------
 A :32...43          ( 2.00    -0.3083)  ( 2.00    -0.2945)  ( 2.00    -0.2863)  ( 2.00    -0.2816)
                     ( 2.00    -0.2537)  ( 2.00    -0.2369)  ( 2.00    -0.2263)  ( 2.00    -0.1782)
                     ( 2.00    -0.1766)  ( 2.00    -0.1487)  ( 1.00    -0.1278)  ( 0.00    -0.0254)

 CYCLE    4
  SDIIS (wt  0.000): -0.1306  0.8512  0.2794
 A-DIIS (wt  1.000):  0.0000  0.8001  0.1999
  DIIS coefficients:  0.0000  0.8001  0.1999
 SCF Error: norm([F,P])=      1.307992858212, max([F,P])=      0.372867469102
 orbitals (Q,E):
 ---------------
 A :32...43          ( 2.00    -0.3433)  ( 2.00    -0.3230)  ( 2.00    -0.3161)  ( 2.00    -0.3099)
                     ( 2.00    -0.2902)  ( 2.00    -0.2674)  ( 2.00    -0.2526)  ( 2.00    -0.2317)
                     ( 2.00    -0.1909)  ( 2.00    -0.1894)  ( 1.00    -0.1458)  ( 0.00    -0.0431)

 CYCLE    5
  SDIIS (wt  0.000): -0.0024  0.4850  0.1559  0.3615
 A-DIIS (wt  1.000):  0.0000  0.3496  0.0000  0.6504
  DIIS coefficients:  0.0000  0.3496  0.0000  0.6504
 SCF Error: norm([F,P])=      0.484833941422, max([F,P])=      0.101856991918
 orbitals (Q,E):
 ---------------
 A :32...43          ( 2.00    -0.3908)  ( 2.00    -0.3746)  ( 2.00    -0.3709)  ( 2.00    -0.3637)
                     ( 2.00    -0.3374)  ( 2.00    -0.3236)  ( 2.00    -0.2865)  ( 2.00    -0.2336)
                     ( 2.00    -0.2333)  ( 2.00    -0.2110)  ( 1.00    -0.1808)  ( 0.00    -0.0672)

 CYCLE    6
  SDIIS (wt  0.000): -0.0289  0.2473 -0.1468  0.6403  0.2881
 A-DIIS (wt  1.000):  0.0000  0.2895  0.0000  0.6096  0.1009
  DIIS coefficients:  0.0000  0.2895  0.0000  0.6096  0.1009
 SCF Error: norm([F,P])=      1.029758667972, max([F,P])=      0.269046354694
 orbitals (Q,E):
 ---------------
 A :32...43          ( 2.00    -0.3867)  ( 2.00    -0.3760)  ( 2.00    -0.3683)  ( 2.00    -0.3622)
                     ( 2.00    -0.3378)  ( 2.00    -0.3288)  ( 2.00    -0.2868)  ( 2.00    -0.2341)
                     ( 2.00    -0.2289)  ( 2.00    -0.2242)  ( 1.00    -0.1923)  ( 0.00    -0.0669)

 CYCLE    7
  SDIIS (wt  0.651):  0.0013  0.1240  0.0200  0.2994  0.0102  0.5450
 A-DIIS (wt  0.349):  0.0000  0.0000  0.0000  0.0877  0.0000  0.9123
  DIIS coefficients:  0.0009  0.0807  0.0130  0.2254  0.0066  0.6734
 SCF Error: norm([F,P])=      0.176593727459, max([F,P])=      0.035596404774
 orbitals (Q,E):
 ---------------
 A :32...43          ( 2.00    -0.3779)  ( 2.00    -0.3609)  ( 2.00    -0.3544)  ( 2.00    -0.3514)
                     ( 2.00    -0.3279)  ( 2.00    -0.3120)  ( 2.00    -0.2831)  ( 2.00    -0.2357)
                     ( 2.00    -0.2231)  ( 2.00    -0.2217)  ( 1.00    -0.1808)  ( 0.00    -0.0653)

 CYCLE    8
  SDIIS (wt  0.801):  0.0080  0.0253  0.0312  0.0786 -0.0183  0.4426  0.4326
 A-DIIS (wt  0.199):  0.0000  0.0000  0.0000  0.0000  0.0000  0.2840  0.7160
  DIIS coefficients:  0.0064  0.0202  0.0250  0.0630 -0.0147  0.4111  0.4890
 SCF Error: norm([F,P])=      0.097014597139, max([F,P])=      0.020695677012
 orbitals (Q,E):
 ---------------
 A :32...43          ( 2.00    -0.3788)  ( 2.00    -0.3656)  ( 2.00    -0.3575)  ( 2.00    -0.3540)
                     ( 2.00    -0.3293)  ( 2.00    -0.3168)  ( 2.00    -0.2805)  ( 2.00    -0.2308)
                     ( 2.00    -0.2215)  ( 2.00    -0.2193)  ( 1.00    -0.1836)  ( 0.00    -0.0623)

 CYCLE    9
  SDIIS (wt  0.942): -0.0006  0.0005  0.0072  0.0071 -0.0030  0.1942  0.3542  0.4403
 A-DIIS (wt  0.058):  0.0000  0.0000  0.0000  0.0000  0.0000  0.0000  0.0595  0.9405
  DIIS coefficients: -0.0006  0.0005  0.0068  0.0067 -0.0028  0.1830  0.3372  0.4692
 SCF Error: norm([F,P])=      0.026761442592, max([F,P])=      0.006722925306
 orbitals (Q,E):
 ---------------
 A :32...43          ( 2.00    -0.3795)  ( 2.00    -0.3653)  ( 2.00    -0.3574)  ( 2.00    -0.3544)
                     ( 2.00    -0.3300)  ( 2.00    -0.3167)  ( 2.00    -0.2820)  ( 2.00    -0.2319)
                     ( 2.00    -0.2226)  ( 2.00    -0.2203)  ( 1.00    -0.1834)  ( 0.00    -0.0639)

 CYCLE   10
  SDIIS (wt  0.994): -0.0028  0.0017  0.0024 -0.0028 -0.0008  0.0694  0.1415  0.2595  0.5319
 A-DIIS (wt  0.006):  0.0000  0.0000  0.0000  0.0000  0.0000  0.0000  0.0000  0.0000  1.0000
  DIIS coefficients: -0.0028  0.0017  0.0024 -0.0028 -0.0008  0.0690  0.1407  0.2579  0.5348
 SCF Error: norm([F,P])=      0.005977125867, max([F,P])=      0.001616098687
 orbitals (Q,E):
 ---------------
 A :32...43          ( 2.00    -0.3792)  ( 2.00    -0.3651)  ( 2.00    -0.3572)  ( 2.00    -0.3541)
                     ( 2.00    -0.3297)  ( 2.00    -0.3165)  ( 2.00    -0.2820)  ( 2.00    -0.2318)
[...]
                                   -2.98%     2 P:y             4.589  0.00     3 C
                                    2.92%     1 P:z            -5.239  0.67     5 C
                                    2.65%     2 P:z             4.589  0.00     5 C
                                    2.44%     1 S              -6.532  1.00    17 H
                                    2.37%     1 P:z            -5.239  0.67     1 C
                                    2.36%     1 S              -6.532  1.00    11 H
                                   -2.23%     2 S               2.394  0.00    14 H
                                    2.09%     1 S              -6.532  1.00     9 H
                                    1.95%     2 S               2.394  0.00    13 H
                                    1.90%     2 S               2.394  0.00    12 H
                                    1.78%     1 S              -6.532  1.00    13 H
                                    1.77%     2 P:x             4.589  0.00     2 C
                                    1.73%     1 P:z            -5.239  0.67     2 C
                                   -1.69%     2 P:z             4.589  0.00     2 C
                                    1.56%     2 P:z             4.589  0.00     1 C
                                    1.51%     2 P:x             4.589  0.00     1 C
                                    1.42%     4 P:x             3.720  0.00     6 Br
                                    1.26%     2 P:x             4.589  0.00     3 C
                                   -1.20%     2 S               2.394  0.00    17 H
                                    1.16%     1 P:x            -5.239  0.67     2 C
                                    1.14%     1 P:x            -5.239  0.67     1 C
                                    1.00%     3 S              40.869  0.00     7 H
       3.175  0.00    56 A         23.45%     1 P:y            -5.239  0.67     3 C
                                   17.73%     2 P:y             4.589  0.00     3 C
                                  -11.52%     2 P:z             4.589  0.00     1 C
                                   10.50%     2 P:y             4.589  0.00     5 C
                                    9.72%     2 P:y             4.589  0.00     4 C
                                    9.64%     1 P:y            -5.239  0.67     4 C
                                    7.43%     1 P:y            -5.239  0.67     5 C
                                    6.70%     1 P:z            -5.239  0.67     1 C
                                   -6.50%     2 P:z             4.589  0.00     2 C
                                   -6.26%     2 P:x             4.589  0.00     2 C
                                    5.69%     1 P:x            -5.239  0.67     3 C
                                    5.48%     2 S             -13.620  2.00     1 C
                                   -4.21%     3 S              10.158  0.00     1 C
                                    4.12%     2 P:x             4.589  0.00     3 C
                                    3.49%     1 P:x            -5.239  0.67     1 C
                                   -3.23%     2 P:y             4.589  0.00     1 C
                                    2.59%     1 P:y            -7.062  1.00    18 N
                                    2.34%     2 P:x             4.589  0.00     4 C
                                    2.22%     2 P:y             7.649  0.00    18 N
                                    2.18%     2 P:x             4.589  0.00     5 C
                                   -2.09%     2 S               2.394  0.00     8 H
                                    2.01%     2 P:z             4.589  0.00     5 C
                                    1.88%     4 P:z             3.720  0.00     6 Br
                                    1.68%     1 P:z            -5.239  0.67     2 C
                                    1.66%     1 S              -6.532  1.00     9 H
                                    1.45%     1 S              -6.532  1.00     8 H
                                    1.35%     1 P:z            -5.239  0.67     3 C
                                    1.25%     1 P:x            -5.239  0.67     2 C
                                    1.11%     2 S               2.394  0.00    12 H
                                   -1.09%     3 S              40.869  0.00    15 H
                                   -1.02%     2 P:x             4.589  0.00     1 C
                                    1.01%     1 P:y            -5.239  0.67     1 C
       3.543  0.00    57 A         12.43%     1 P:x            -5.239  0.67     4 C
                                   11.67%     4 P:z             3.720  0.00     6 Br
                                   10.29%     1 S              -6.532  1.00    16 H
                                    8.04%     1 S              -6.532  1.00    14 H
                                    7.76%     2 P:z             4.589  0.00     2 C
                                    7.76%     1 S              -6.532  1.00    12 H
                                   -6.60%     2 S               2.394  0.00    12 H
                                    6.29%     1 P:x            -5.239  0.67     5 C
                                   -5.74%     2 P:x             4.589  0.00     2 C
                                   -5.39%     3 S              10.158  0.00     1 C
                                    5.27%     4 P:x             3.720  0.00     6 Br
                                    5.24%     2 P:x             4.589  0.00     3 C
                                    5.16%     1 P:x            -5.239  0.67     3 C
                                    5.15%     1 P:x            -5.239  0.67     2 C
                                    4.97%     1 S              -6.532  1.00     8 H
                                    4.93%     1 P:z            -5.239  0.67     2 C
                                    4.00%     1 S              -6.532  1.00    17 H
                                    3.73%     1 P:z            -5.239  0.67     1 C
                                   -3.66%     2 S               2.394  0.00    16 H
                                    3.61%     1 P:y            -5.239  0.67     3 C
                                   -3.61%     2 P:y             4.589  0.00     1 C
                                    3.13%     2 S               2.394  0.00    11 H
                                    2.95%     2 S             -13.620  2.00     1 C
                                   -2.75%     2 S               2.394  0.00    17 H
                                    2.73%     2 P:z             4.589  0.00     1 C
                                    2.58%     2 P:z             4.589  0.00     3 C
                                   -2.53%     5 S               6.099  0.00     6 Br
                                   -2.48%     2 S               2.394  0.00     8 H
                                   -2.40%     2 S               2.394  0.00    14 H
                                    2.24%     1 P:z            -5.239  0.67     5 C
                                    1.69%     1 P:x            11.051  0.00    13 H
                                    1.67%     2 S             -13.620  2.00     2 C
                                    1.60%     1 P:y            -5.239  0.67     1 C
                                    1.46%     1 P:x            11.051  0.00    17 H
                                    1.45%     1 S              -6.532  1.00    13 H
                                   -1.37%     3 S              10.158  0.00     2 C
                                    1.20%     2 P:y             4.589  0.00     5 C
                                    1.09%     1 P:y            -5.239  0.67     5 C
                                    1.06%     2 P:x             4.589  0.00     5 C



 =======================================================================
 Electrostatic potential at the Nuclei due to electrons and other nuclei
 =======================================================================
  
         Atom                  Potential
         ----                  ---------
     1)   C                  14.70860890
     2)   C                  14.74572004
     3)   Br                180.57123162
     4)   C                  14.79041728
     5)   H                   1.11068042
     6)   H                   1.10405030
     7)   H                   1.11768734
     8)   N                  18.42019215
     9)   H                   1.04551702
    10)   H                   1.03690228
    11)   C                  14.77568043
    12)   H                   1.09925453
    13)   H                   1.10245415
    14)   H                   1.08672113
    15)   C                  14.77733304
    16)   H                   1.10215426
    17)   H                   1.08842664
    18)   H                   1.10433997
 Mulliken charges used for AMS results%charges...


    =====================
     CALCULATION RESULTS
    =====================

Energy (hartree)            -3.32107094


--------------
Atomic charges
--------------
  Index   Atom    Charge
      1      C    0.2614
      2      C   -0.0148
      3     Br   -0.3463
      4      C    0.7239
      5      H   -0.2066
      6      H   -0.2317
      7      H   -0.1988
      8      N   -0.0201
      9      H   -0.0409
     10      H   -0.0660
     11      C    0.6987
     12      H   -0.2255
     13      H   -0.2342
     14      H   -0.1754
     15      C    0.7124
     16      H   -0.2226
     17      H   -0.1817
     18      H   -0.2318


Dipole moment vector    (Debye):    -2.11045644   -0.04464710    3.52418915
              magnitude (Debye):     4.10803225


-----------------------
Molecular orbitals info
-----------------------
n orbitals:              333
n spin:                    1

Note: only printing virtual orbitals with
      energy smaller than HOMO + 100. eV

Note: fractional orbital occupations. HOMO and LUMO labels are not well defined!

HOMO (eV):              -5.9986
LUMO (eV):              -4.9964
HOMO-LUMO gap (eV):      1.0022

   Index   Energy (eV)    Occupation
     220       93.5076         0.000       
     219       93.1764         0.000       
     218       92.7084         0.000       
     217       92.5028         0.000       
     216       91.4706         0.000       
     215       88.8193         0.000       
     214       88.3809         0.000       
     213       87.5476         0.000       
     212       87.2203         0.000       
     211       86.2823         0.000       
     210       85.9691         0.000       
     209       84.9928         0.000       
     208       83.7505         0.000       
     207       83.4475         0.000       
     206       82.5827         0.000       
     205       82.3735         0.000       
     204       81.7702         0.000       
     203       81.4688         0.000       
     202       81.3872         0.000       
     201       81.1948         0.000       
     200       80.9570         0.000       
     199       80.2825         0.000       
     198       79.6114         0.000       
     197       78.9731         0.000       
     196       78.7668         0.000       
     195       78.4810         0.000       
     194       78.1724         0.000       
     193       77.5638         0.000       
     192       77.1985         0.000       
     191       76.6106         0.000       
     190       76.1132         0.000       
     189       75.6709         0.000       
     188       75.4961         0.000       
     187       74.9185         0.000       
     186       73.4269         0.000       
     185       72.7171         0.000       
     184       71.2083         0.000       
     183       70.0559         0.000       
     182       69.0416         0.000       
     181       68.6619         0.000       
     180       67.9304         0.000       
     179       67.1535         0.000       
     178       66.0436         0.000       
     177       65.4845         0.000       
     176       64.8871         0.000       
     175       62.9175         0.000       
     174       62.2548         0.000       
     173       61.0710         0.000       
     172       60.7828         0.000       
     171       59.6945         0.000       
     170       59.2717         0.000       
     169       58.4787         0.000       
     168       57.8762         0.000       
     167       57.6713         0.000       
     166       56.6661         0.000       
     165       56.0657         0.000       
     164       54.8344         0.000       
     163       54.4949         0.000       
     162       53.4113         0.000       
     161       53.2953         0.000       
     160       52.6279         0.000       
     159       51.9880         0.000       
     158       51.5368         0.000       
     157       50.8856         0.000       
     156       50.4980         0.000       
     155       49.7784         0.000       
     154       49.1232         0.000       
     153       48.8484         0.000       
     152       47.0591         0.000       
     151       46.1678         0.000       
     150       45.5453         0.000       
     149       44.2876         0.000       
     148       43.6172         0.000       
     147       42.8209         0.000       
     146       41.7849         0.000       
     145       41.1054         0.000       
     144       40.7481         0.000       
     143       40.1750         0.000       
     142       39.3420         0.000       
     141       39.1745         0.000       
     140       38.9201         0.000       
     139       37.6995         0.000       
     138       37.3361         0.000       
     137       36.9747         0.000       
     136       36.0765         0.000       
     135       35.9331         0.000       
     134       35.7415         0.000       
     133       34.7415         0.000       
     132       34.2874         0.000       
     131       33.8101         0.000       
     130       33.5707         0.000       
     129       33.1291         0.000       
     128       32.5928         0.000       
     127       31.9691         0.000       
     126       31.2783         0.000       
     125       31.0812         0.000       
     124       31.0162         0.000       
     123       30.3736         0.000       
     122       30.2743         0.000       
     121       29.9379         0.000       
     120       29.6310         0.000       
     119       28.9471         0.000       
     118       28.8897         0.000       
     117       28.0338         0.000       
     116       27.6051         0.000       
     115       27.2345         0.000       
     114       27.0311         0.000       
     113       26.5026         0.000       
     112       26.2046         0.000       
     111       26.1321         0.000       
     110       25.9715         0.000       
     109       25.1111         0.000       
     108       24.8173         0.000       
     107       24.3381         0.000       
     106       24.0333         0.000       
     105       23.4026         0.000       
     104       22.6082         0.000       
     103       22.1421         0.000       
     102       20.3857         0.000       
     101       20.0248         0.000       
     100       19.4037         0.000       
      99       18.6095         0.000       
      98       17.9788         0.000       
      97       17.1358         0.000       
      96       16.9165         0.000       
      95       16.4927         0.000       
      94       15.4211         0.000       
      93       14.8950         0.000       
      92       14.2168         0.000       
      91       13.9301         0.000       
      90       13.5188         0.000       
      89       13.1257         0.000       
      88       12.4045         0.000       
      87       12.2487         0.000       
      86       12.1403         0.000       
      85       11.7444         0.000       
      84       11.3976         0.000       
      83       10.9604         0.000       
      82       10.6533         0.000       
      81       10.4855         0.000       
      80       10.2972         0.000       
      79       10.0926         0.000       
      78        9.6582         0.000       
      77        9.3939         0.000       
      76        9.3400         0.000       
      75        8.7798         0.000       
      74        8.2685         0.000       
      73        8.1055         0.000       
      72        7.7146         0.000       
      71        7.4950         0.000       
      70        7.3822         0.000       
      69        7.1802         0.000       
      68        6.5806         0.000       
      67        6.1771         0.000       
      66        6.0669         0.000       
      65        5.9623         0.000       
      64        5.7533         0.000       
      63        5.3941         0.000       
      62        5.0234         0.000       
      61        4.8815         0.000       
      60        4.7277         0.000       
      59        4.0306         0.000       
      58        4.0128         0.000       
      57        3.5432         0.000       
      56        3.1752         0.000       
      55        2.7406         0.000       
      54        2.5060         0.000       
      53        2.3833         0.000       
      52        1.9256         0.000       
      51        1.8387         0.000       
      50        1.6657         0.000       
      49        1.3377         0.000       
      48        1.1930         0.000       
      47        0.7809         0.000       
      46        0.3008         0.000       
      45        0.1282         0.000       
      44       -0.4728         0.000       
      43       -1.7356         0.000       
      42       -4.9964         1.000 < LUMO
      41       -5.9986         2.000 < HOMO
      40       -6.0634         2.000       
      39       -6.3030         2.000       
      38       -7.6726         2.000       
      37       -8.6143         2.000       
      36       -8.9719         2.000       
      35       -9.6373         2.000       
      34       -9.7211         2.000       
      33       -9.9364         2.000       
      32      -10.3187         2.000       
      31      -10.9581         2.000       
      30      -11.1182         2.000       
      29      -11.9646         2.000       
      28      -12.5563         2.000       
      27      -13.1616         2.000       
      26      -15.7432         2.000       
      25      -17.3385         2.000       
      24      -18.1562         2.000       
      23      -18.7102         2.000       
      22      -20.1696         2.000       
      21      -22.9845         2.000       
      20      -64.6089         2.000       
      19      -64.6101         2.000       
      18      -64.8206         2.000       
      17      -64.8237         2.000       
      16      -64.8918         2.000       
      15     -171.1782         2.000       
      14     -171.1814         2.000       
      13     -171.4660         2.000       
      12     -235.0466         2.000       
      11     -269.9082         2.000       
      10     -270.2379         2.000       
       9     -270.2838         2.000       
       8     -271.2425         2.000       
       7     -272.1942         2.000       
       6     -381.5354         2.000       
       5    -1525.2874         2.000       
       4    -1525.2880         2.000       
       3    -1525.3855         2.000       
       2    -1728.4089         2.000       
       1   -13294.9113         2.000       

AMS application finished. Exiting.
NORMAL TERMINATION
     Total cpu time:      78.95
  Total system time:       0.45
 Total elapsed time:      79.67
NORMAL TERMINATION with warnings
