srun: Job 662085 step creation temporarily disabled, retrying (Requested nodes are busy)
srun: Job 662085 step creation still disabled, retrying (Requested nodes are busy)
srun: Job 662085 step creation still disabled, retrying (Requested nodes are busy)
srun: Step created for StepId=662085.8

 *******************************************************************************
 *                                                                             *
 *  --------------------------------                                           *
 *   Amsterdam Modeling Suite (AMS)              2026.103                      *
 *  --------------------------------                                           *
 *                                               r260501 2026-05-01 873454b5   *
 *                                                                             *
 *                                                                             *
 *                              =================                              *
 *                              |               |                              *
 *                              |     A M S     |                              *
 *                              |               |                              *
 *                              =================                              *
 *                                                                             *
 *                                                                             *
 *   Online information and documentation:  https://www.scm.com/support/       *
 *   E-mail:  support@scm.com   info@scm.com                                   *
 *                                                                             *
 *   Scientific publications using AMS results must be properly referenced     *
 *   See the User Manuals (or the web site) for recommended citations          *
 *   The terms and conditions of the End User License Agreement apply to       *
 *   the use of AMS, https://www.scm.com/license-terms/                        *
 *                                                                             *
 **********************  x86_64_linux_intel / intelmpi  ************************
 
 Licensed to: Jong-June Jeon / University of Seoul 2026-06-02 13:44:15
 SCM User ID: u30731
  
 AMS 2026.103  RunTime: Jun02-2026 22:33:06  ShM Nodes: 1  Procs: 1

 AMS jobname: c2_fragB_ts
 AMS jobid  : 1381883752

 Start   directory: /gpfs/home1/yeseo1ee/projects/eda-asm-prediction/ADF_800/adf_outputs/batch_000/dipolar_000858/
 Results directory: /gpfs/home1/yeseo1ee/projects/eda-asm-prediction/ADF_800/adf_outputs/batch_000/dipolar_000858/c2_fragB_ts.results/
 Scratch directory: /tmp/amstmp_c2_fragB_ts_kid0.1381883752/

 RNG seed: -462920302 -1293267216 784956369 -115571155 -675785514 749468770 -815646315 586267295



                      ************************************************************************
                      *  ADF 2026.103  RunTime: Jun02-2026 22:33:06  ShM Nodes: 1  Procs: 1  *
                      ************************************************************************
  

       ****************************
       * SINGLE POINT CALCULATION *
       ****************************

--------
Geometry
--------
Formula: C7H8O2
Atoms
  Index Symbol   x (angstrom)   y (angstrom)   z (angstrom)
      1      C     0.47663000     0.09752000     1.54328000
      2      C     1.44945000     1.30742000     1.50498000
      3      C     1.97375000     1.53260000     0.08260000
      4      C     2.74981000     0.45689000    -0.13850000
      5      O     3.46747000     0.02700000    -1.18686000
      6      C     3.67082000     0.96514000    -2.24421000
      7      C     2.69758000    -0.38335000     1.13750000
      8      O     2.61369000     0.67942000     2.12149000
      9      C     1.28630000    -0.98874000     1.27618000
     10      H    -0.43922000     0.09180000     2.12766000
     11      H     1.12534000     2.19369000     2.06099000
     12      H     1.69794000     2.35058000    -0.57427000
     13      H     4.30975000     0.47056000    -2.98649000
     14      H     4.17408000     1.86711000    -1.85862000
     15      H     2.72064000     1.25662000    -2.71281000
     16      H     3.54362000    -1.05659000     1.31150000
     17      H     1.12198000    -2.00996000     1.60840000

Total System Charge              0.00000


----------------
ADF Engine Input
----------------
 
   Basis
     Type TZ2P
     Core None
   End
   XC
     GGA BLYP
     Dispersion GRIMME3 BJDAMP
   End
   Symmetry NOSYM
   NumericalQuality Normal
   Unrestricted No
   SCF
     Iterations 200
     Converge 1.0e-6
   End
   Save TAPE21
 

 Title: *** (NO TITLE) ***

 *** adf ***



 ===========================
 A T T A C H E D   F I L E S
 ===========================
  



 ===============================
 M O D E L   P A R A M E T E R S
 ===============================
  
 DENSITY FUNCTIONAL POTENTIAL (scf)
    LDA:                               Exchange only                           == Not Default ==
    Gradient Corrections:              Becke88 LYP                             == Not Default ==

 SPIN  (restricted / unrestr.)
    Molecule:                          Restricted                               
    Fragments:                         Restricted                               

 OTHER ASPECTS
    Relativistic Corrections:          scalar (ZORA,MAPA)                       

    Nuclear Charge Density Model:      Point Charge Nuclei                      
    Core Treatment:                    Frozen Orbital(s)                        

    Hyperfine or Zeeman Interaction:   ---                                      

 Settings for Grimme D3 dispersion correction

      damping                        BJ
      s6                          1.000
      s8                          2.700
      a1                          0.430
      a2                          4.236

 Other (technical) parameters

      alpha                      14.000
      version                         4
 


 Fragment File(s)
 ----------------
 C:
         file : /gpfs/home1/yeseo1ee/projects/eda-asm-prediction/ADF_800/adf_outputs/batch_000/dipolar_000858/c2_fragB_ts.results/t21.50BA88D5.C
         jobid: 0
         title: Carbon (TZ2P)
 O:
         file : /gpfs/home1/yeseo1ee/projects/eda-asm-prediction/ADF_800/adf_outputs/batch_000/dipolar_000858/c2_fragB_ts.results/t21.6E90ABAE.O
         jobid: 0
         title: Oxygen (TZ2P)
 H:
         file : /gpfs/home1/yeseo1ee/projects/eda-asm-prediction/ADF_800/adf_outputs/batch_000/dipolar_000858/c2_fragB_ts.results/t21.6F35CCAB.H
         jobid: 0
         title: Hydrogen (TZ2P)



 ===============
 G E O M E T R Y  ***  3D  Molecule  ***
 ===============
  

 ATOMS
 =====                            X Y Z                    CHARGE
                                (Angstrom)             Nucl     +Core       At.Mass
                       --------------------------    ----------------       -------
    1  C               0.4766    0.0975    1.5433      6.00      6.00       12.0000
    2  C               1.4494    1.3074    1.5050      6.00      6.00       12.0000
    3  C               1.9737    1.5326    0.0826      6.00      6.00       12.0000
    4  C               2.7498    0.4569   -0.1385      6.00      6.00       12.0000
    5  O               3.4675    0.0270   -1.1869      8.00      8.00       15.9949
    6  C               3.6708    0.9651   -2.2442      6.00      6.00       12.0000
    7  C               2.6976   -0.3833    1.1375      6.00      6.00       12.0000
    8  O               2.6137    0.6794    2.1215      8.00      8.00       15.9949
    9  C               1.2863   -0.9887    1.2762      6.00      6.00       12.0000
   10  H              -0.4392    0.0918    2.1277      1.00      1.00        1.0078
   11  H               1.1253    2.1937    2.0610      1.00      1.00        1.0078
   12  H               1.6979    2.3506   -0.5743      1.00      1.00        1.0078
   13  H               4.3098    0.4706   -2.9865      1.00      1.00        1.0078
   14  H               4.1741    1.8671   -1.8586      1.00      1.00        1.0078
   15  H               2.7206    1.2566   -2.7128      1.00      1.00        1.0078
   16  H               3.5436   -1.0566    1.3115      1.00      1.00        1.0078
   17  H               1.1220   -2.0100    1.6084      1.00      1.00        1.0078


 FRAGMENTS
 =========                                     Atoms in this Fragment     Cart. coord.s (Angstrom)
                                               -------------------------------------------------------
    1  C                                                 1  C            0.4766    0.0975    1.5433
    2  C                                                 2  C            1.4494    1.3074    1.5050
    3  C                                                 3  C            1.9737    1.5326    0.0826
    4  C                                                 4  C            2.7498    0.4569   -0.1385
    5  C                                                 6  C            3.6708    0.9651   -2.2442
    6  C                                                 7  C            2.6976   -0.3833    1.1375
    7  C                                                 9  C            1.2863   -0.9887    1.2762
    8  O                                                 5  O            3.4675    0.0270   -1.1869
    9  O                                                 8  O            2.6137    0.6794    2.1215
   10  H                                                10  H           -0.4392    0.0918    2.1277
   11  H                                                11  H            1.1253    2.1937    2.0610
   12  H                                                12  H            1.6979    2.3506   -0.5743
   13  H                                                13  H            4.3098    0.4706   -2.9865
   14  H                                                14  H            4.1741    1.8671   -1.8586
   15  H                                                15  H            2.7206    1.2566   -2.7128
   16  H                                                16  H            3.5436   -1.0566    1.3115
   17  H                                                17  H            1.1220   -2.0100    1.6084


 Interatomic Distance Matrix (Angstrom)
 --------------------------------------

   1)     0.000
   2)     1.553   0.000
   3)     2.537   1.533   0.000
   4)     2.850   2.262   1.345   0.000
   5)     4.050   3.600   2.472   1.341   0.000
   6)     5.030   4.371   2.935   2.354   1.428   0.000
   7)     2.308   2.133   2.304   1.529   2.483   3.768   0.000
   8)     2.289   1.459   2.301   2.275   3.478   4.501   1.451   0.000
   9)     1.381   2.313   2.873   2.497   3.443   4.679   1.542   2.293   0.000
  10)     1.086   2.331   3.476   3.929   5.124   6.064   3.324   3.109   2.207   0.000
  11)     2.255   1.095   2.252   3.239   4.553   5.150   3.157   2.124   3.282   2.621
          0.000
  12)     3.324   2.339   1.085   2.210   2.984   2.933   3.377   3.301   3.840   4.119
          2.701   0.000
  13)     5.946   5.390   4.001   3.247   2.036   1.097   4.509   5.386   5.426   6.989
          6.212   4.022   0.000
  14)     5.327   4.365   2.953   2.641   2.082   1.102   4.028   4.437   5.131   6.350
          4.976   2.831   1.800   0.000
  15)     4.949   4.405   2.907   2.696   2.097   1.099   4.185   4.870   4.797   5.897
          5.120   2.611   1.794   1.793   0.000
  16)     3.285   3.164   3.268   2.241   2.724   4.092   1.095   2.129   2.259   4.225
          4.120   4.309   4.625   4.358   4.714   0.000
  17)     2.205   3.335   3.950   3.433   4.179   5.495   2.313   3.118   1.086   2.669
          4.228   4.910   6.118   6.031   5.648   2.619   0.000

 Min. Distance =    1.0847
 Max. Distance =    6.9893



 =====================================
 S Y M M E T R Y ,   E L E C T R O N S
 =====================================
  
 Symmetry: NOSYM

 Irreducible Representations, including subspecies
 -------------------------------------------------
 A


 Configuration of Valence Electrons
 ==================================
 ( determined in the SCF procedure )

 Total:   66

 Net Charge: 0 (Nuclei minus Electrons)

 Aufbau principle for MO occupations will be applied through SCF cycle no.     100
 Thereafter, the program will assign electrons to MOs that are spatially
 similar to the occupied MOs in a "reference" cycle ("KeepOrbitals").
 The reference cycle is always the PREVIOUS cycle: it will evolve with
 the SCF procedure.
 ***************************************************************************************************



                                      ****************************************
                                      *  B U I L D : (Fragments, Functions)  *
                                      ****************************************
  



 =======
 S F O s  ***  (Symmetrized Fragment Orbitals)  ***
 =======
  
 SFOs are linear combinations of (valence) Fragment Orbitals (FOs), such that the SFOs transform as the
 irreducible representations of the (molecular) symmetry group. Each SFO is therefore characterized by
 an irrep of the molecule and by a few (or only one) generating FOs.
 The SFOs constitute a symmetry-adapted basis for the Fock matrix. The MO eigenvector coefficients in
 this basis provide a direct interpretation of the MOs in terms of Frontier Orbital Theory.

 The SFOs are combined with auxiliary Core Functions (CFs) to ensure orthogonalization on the (frozen)
 Core Orbitals (COs). The Core-orthogonalized SFOs (CSFOs) constitute the true Fock basis.

 The FOs, and hence also the (C)SFOs are combinations of the elementary basis functions (BAS). The basis
 functions that participate in the description of the SFOs depend on the irrep. The indices of the
 involved functions are printed below for each irrep.
 (The complete list of primitive basis functions is printed in another section)

 Total nr. of (C)SFOs (summation over all irreps) :   322

 NOTE: a (C)SFO that is defined as a combination of more than one FO is usually NOT normalized.



                                       === A ===
 Nr. of SFOs :  322
 Cartesian basis functions that participate in this irrep (total number =   366) :
      1     2     3     4     5     6     9    12     7    10
     13     8    11    14    15    16    17    18    19    20
     21    22    23    24    25    26    27    28    29    30
     31    32    33    34    35    36    39    42    37    40
     43    38    41    44    45    46    47    48    49    50
     51    52    53    54    55    56    57    58    59    60
     61    62    63    64    65    66    69    72    67    70
     73    68    71    74    75    76    77    78    79    80
     81    82    83    84    85    86    87    88    89    90
     91    92    93    94    95    96    99   102    97   100
    103    98   101   104   105   106   107   108   109   110
    111   112   113   114   115   116   117   118   119   120
    121   122   123   124   125   126   129   132   127   130
    133   128   131   134   135   136   137   138   139   140
    141   142   143   144   145   146   147   148   149   150
    151   152   153   154   155   156   159   162   157   160
    163   158   161   164   165   166   167   168   169   170
    171   172   173   174   175   176   177   178   179   180
    181   182   183   184   185   186   189   192   187   190
    193   188   191   194   195   196   197   198   199   200
    201   202   203   204   205   206   207   208   209   210
    211   212   213   214   215   216   219   222   217   220
    223   218   221   224   225   226   227   228   229   230
    231   232   233   234   235   236   237   238   239   240
    241   242   243   244   245   246   249   252   247   250
    253   248   251   254   255   256   257   258   259   260
    261   262   263   264   265   266   267   268   269   270
    271   272   273   274   275   276   277   278   279   280
    281   282   283   284   285   286   287   288   289   290
    291   292   293   294   295   296   297   298   299   300
    301   302   303   304   305   306   307   308   309   310
    311   312   313   314   315   316   317   318   319   320
    321   322   323   324   325   326   327   328   329   330
    331   332   333   334   335   336   337   338   339   340
    341   342   343   344   345   346   347   348   349   350
    351   352   353   354   355   356   357   358   359   360
    361   362   363   364   365   366

    SFO  (index         Fragment          Generating    Expansion in Fragment Orbitals
  indx  incl.CFs)   Occup   Orb.Energy   FragmentType  Coeff.   Orbital     on Fragment
 --------------------------------------------------------------------------------------
     1       1      2.000     -10.066 au  C             1.00      1 S               1
                        (    -273.921 eV)
     2       2      2.000      -0.501 au  C             1.00      2 S               1
                        (     -13.620 eV)
     3       3       --         0.373 au  C             1.00      3 S               1
                        (      10.158 eV)
     4       4       --         5.405 au  C             1.00      4 S               1
                        (     147.073 eV)
     5       5       --        49.848 au  C             1.00      5 S               1
                        (    1356.422 eV)
     6       6      0.667      -0.193 au  C             1.00      1 P:x             1
                        (      -5.239 eV)
     7       7       --         0.169 au  C             1.00      2 P:x             1
                        (       4.589 eV)
     8       8       --         2.013 au  C             1.00      3 P:x             1
                        (      54.789 eV)
     9       9      0.667      -0.193 au  C             1.00      1 P:y             1
                        (      -5.239 eV)
    10      10       --         0.169 au  C             1.00      2 P:y             1
                        (       4.589 eV)
    11      11       --         2.013 au  C             1.00      3 P:y             1
                        (      54.789 eV)
    12      12      0.667      -0.193 au  C             1.00      1 P:z             1
                        (      -5.239 eV)
    13      13       --         0.169 au  C             1.00      2 P:z             1
                        (       4.589 eV)
    14      14       --         2.013 au  C             1.00      3 P:z             1
                        (      54.789 eV)
    15      15       --         1.243 au  C             1.00      1 D:z2            1
                        (      33.824 eV)
    16      16       --         1.243 au  C             1.00      1 D:x2-y2         1
                        (      33.824 eV)
    17      17       --         1.243 au  C             1.00      1 D:xy            1
                        (      33.824 eV)
    18      18       --         1.243 au  C             1.00      1 D:xz            1
                        (      33.824 eV)
    19      19       --         1.243 au  C             1.00      1 D:yz            1
                        (      33.824 eV)
    20      20       --         4.016 au  C             1.00      1 F:z3            1
                        (     109.271 eV)
    21      21       --         4.016 au  C             1.00      1 F:z             1
                        (     109.271 eV)
    22      22       --         4.016 au  C             1.00      1 F:xyz           1
                        (     109.271 eV)
    23      23       --         4.016 au  C             1.00      1 F:z2x           1
                        (     109.271 eV)
    24      24       --         4.016 au  C             1.00      1 F:z2y           1
                        (     109.271 eV)
    25      25       --         4.016 au  C             1.00      1 F:x             1
                        (     109.271 eV)
    26      26       --         4.016 au  C             1.00      1 F:y             1
                        (     109.271 eV)
    27      27      2.000     -10.066 au  C             1.00      1 S               2
                        (    -273.921 eV)
    28      28      2.000      -0.501 au  C             1.00      2 S               2
                        (     -13.620 eV)
    29      29       --         0.373 au  C             1.00      3 S               2
                        (      10.158 eV)
    30      30       --         5.405 au  C             1.00      4 S               2
                        (     147.073 eV)
    31      31       --        49.848 au  C             1.00      5 S               2
                        (    1356.422 eV)
    32      32      0.667      -0.193 au  C             1.00      1 P:x             2
                        (      -5.239 eV)
    33      33       --         0.169 au  C             1.00      2 P:x             2
                        (       4.589 eV)
    34      34       --         2.013 au  C             1.00      3 P:x             2
                        (      54.789 eV)
    35      35      0.667      -0.193 au  C             1.00      1 P:y             2
                        (      -5.239 eV)
    36      36       --         0.169 au  C             1.00      2 P:y             2
                        (       4.589 eV)
    37      37       --         2.013 au  C             1.00      3 P:y             2
                        (      54.789 eV)
    38      38      0.667      -0.193 au  C             1.00      1 P:z             2
                        (      -5.239 eV)
    39      39       --         0.169 au  C             1.00      2 P:z             2
                        (       4.589 eV)
    40      40       --         2.013 au  C             1.00      3 P:z             2
                        (      54.789 eV)
    41      41       --         1.243 au  C             1.00      1 D:z2            2
                        (      33.824 eV)
    42      42       --         1.243 au  C             1.00      1 D:x2-y2         2
                        (      33.824 eV)
    43      43       --         1.243 au  C             1.00      1 D:xy            2
                        (      33.824 eV)
    44      44       --         1.243 au  C             1.00      1 D:xz            2
                        (      33.824 eV)
    45      45       --         1.243 au  C             1.00      1 D:yz            2
                        (      33.824 eV)
    46      46       --         4.016 au  C             1.00      1 F:z3            2
                        (     109.271 eV)
    47      47       --         4.016 au  C             1.00      1 F:z             2
                        (     109.271 eV)
    48      48       --         4.016 au  C             1.00      1 F:xyz           2
                        (     109.271 eV)
    49      49       --         4.016 au  C             1.00      1 F:z2x           2
                        (     109.271 eV)
    50      50       --         4.016 au  C             1.00      1 F:z2y           2
                        (     109.271 eV)
    51      51       --         4.016 au  C             1.00      1 F:x             2
                        (     109.271 eV)
    52      52       --         4.016 au  C             1.00      1 F:y             2
                        (     109.271 eV)
    53      53      2.000     -10.066 au  C             1.00      1 S               3
                        (    -273.921 eV)
    54      54      2.000      -0.501 au  C             1.00      2 S               3
                        (     -13.620 eV)
    55      55       --         0.373 au  C             1.00      3 S               3
                        (      10.158 eV)
    56      56       --         5.405 au  C             1.00      4 S               3
                        (     147.073 eV)
    57      57       --        49.848 au  C             1.00      5 S               3
                        (    1356.422 eV)
    58      58      0.667      -0.193 au  C             1.00      1 P:x             3
                        (      -5.239 eV)
    59      59       --         0.169 au  C             1.00      2 P:x             3
                        (       4.589 eV)
    60      60       --         2.013 au  C             1.00      3 P:x             3
                        (      54.789 eV)
    61      61      0.667      -0.193 au  C             1.00      1 P:y             3
                        (      -5.239 eV)
    62      62       --         0.169 au  C             1.00      2 P:y             3
                        (       4.589 eV)
    63      63       --         2.013 au  C             1.00      3 P:y             3
                        (      54.789 eV)
    64      64      0.667      -0.193 au  C             1.00      1 P:z             3
                        (      -5.239 eV)
    65      65       --         0.169 au  C             1.00      2 P:z             3
                        (       4.589 eV)
    66      66       --         2.013 au  C             1.00      3 P:z             3
                        (      54.789 eV)
    67      67       --         1.243 au  C             1.00      1 D:z2            3
                        (      33.824 eV)
    68      68       --         1.243 au  C             1.00      1 D:x2-y2         3
                        (      33.824 eV)
    69      69       --         1.243 au  C             1.00      1 D:xy            3
                        (      33.824 eV)
    70      70       --         1.243 au  C             1.00      1 D:xz            3
                        (      33.824 eV)
    71      71       --         1.243 au  C             1.00      1 D:yz            3
                        (      33.824 eV)
    72      72       --         4.016 au  C             1.00      1 F:z3            3
                        (     109.271 eV)
    73      73       --         4.016 au  C             1.00      1 F:z             3
                        (     109.271 eV)
    74      74       --         4.016 au  C             1.00      1 F:xyz           3
                        (     109.271 eV)
    75      75       --         4.016 au  C             1.00      1 F:z2x           3
                        (     109.271 eV)
    76      76       --         4.016 au  C             1.00      1 F:z2y           3
                        (     109.271 eV)
    77      77       --         4.016 au  C             1.00      1 F:x             3
                        (     109.271 eV)
    78      78       --         4.016 au  C             1.00      1 F:y             3
                        (     109.271 eV)
    79      79      2.000     -10.066 au  C             1.00      1 S               4
                        (    -273.921 eV)
    80      80      2.000      -0.501 au  C             1.00      2 S               4
                        (     -13.620 eV)
    81      81       --         0.373 au  C             1.00      3 S               4
                        (      10.158 eV)
    82      82       --         5.405 au  C             1.00      4 S               4
                        (     147.073 eV)
    83      83       --        49.848 au  C             1.00      5 S               4
                        (    1356.422 eV)
    84      84      0.667      -0.193 au  C             1.00      1 P:x             4
                        (      -5.239 eV)
    85      85       --         0.169 au  C             1.00      2 P:x             4
                        (       4.589 eV)
    86      86       --         2.013 au  C             1.00      3 P:x             4
                        (      54.789 eV)
    87      87      0.667      -0.193 au  C             1.00      1 P:y             4
                        (      -5.239 eV)
    88      88       --         0.169 au  C             1.00      2 P:y             4
                        (       4.589 eV)
    89      89       --         2.013 au  C             1.00      3 P:y             4
                        (      54.789 eV)
    90      90      0.667      -0.193 au  C             1.00      1 P:z             4
                        (      -5.239 eV)
    91      91       --         0.169 au  C             1.00      2 P:z             4
                        (       4.589 eV)
    92      92       --         2.013 au  C             1.00      3 P:z             4
                        (      54.789 eV)
    93      93       --         1.243 au  C             1.00      1 D:z2            4
                        (      33.824 eV)
    94      94       --         1.243 au  C             1.00      1 D:x2-y2         4
                        (      33.824 eV)
    95      95       --         1.243 au  C             1.00      1 D:xy            4
                        (      33.824 eV)
    96      96       --         1.243 au  C             1.00      1 D:xz            4
                        (      33.824 eV)
    97      97       --         1.243 au  C             1.00      1 D:yz            4
                        (      33.824 eV)
    98      98       --         4.016 au  C             1.00      1 F:z3            4
                        (     109.271 eV)
    99      99       --         4.016 au  C             1.00      1 F:z             4
                        (     109.271 eV)
   100     100       --         4.016 au  C             1.00      1 F:xyz           4
                        (     109.271 eV)
   101     101       --         4.016 au  C             1.00      1 F:z2x           4
                        (     109.271 eV)
   102     102       --         4.016 au  C             1.00      1 F:z2y           4
                        (     109.271 eV)
   103     103       --         4.016 au  C             1.00      1 F:x             4
                        (     109.271 eV)
   104     104       --         4.016 au  C             1.00      1 F:y             4
                        (     109.271 eV)
   105     105      2.000     -10.066 au  C             1.00      1 S               5
                        (    -273.921 eV)
   106     106      2.000      -0.501 au  C             1.00      2 S               5
                        (     -13.620 eV)
   107     107       --         0.373 au  C             1.00      3 S               5
                        (      10.158 eV)
   108     108       --         5.405 au  C             1.00      4 S               5
                        (     147.073 eV)
   109     109       --        49.848 au  C             1.00      5 S               5
                        (    1356.422 eV)
   110     110      0.667      -0.193 au  C             1.00      1 P:x             5
                        (      -5.239 eV)
   111     111       --         0.169 au  C             1.00      2 P:x             5
                        (       4.589 eV)
   112     112       --         2.013 au  C             1.00      3 P:x             5
                        (      54.789 eV)
   113     113      0.667      -0.193 au  C             1.00      1 P:y             5
                        (      -5.239 eV)
   114     114       --         0.169 au  C             1.00      2 P:y             5
                        (       4.589 eV)
   115     115       --         2.013 au  C             1.00      3 P:y             5
                        (      54.789 eV)
   116     116      0.667      -0.193 au  C             1.00      1 P:z             5
                        (      -5.239 eV)
   117     117       --         0.169 au  C             1.00      2 P:z             5
                        (       4.589 eV)
   118     118       --         2.013 au  C             1.00      3 P:z             5
                        (      54.789 eV)
   119     119       --         1.243 au  C             1.00      1 D:z2            5
                        (      33.824 eV)
   120     120       --         1.243 au  C             1.00      1 D:x2-y2         5
                        (      33.824 eV)
   121     121       --         1.243 au  C             1.00      1 D:xy            5
                        (      33.824 eV)
   122     122       --         1.243 au  C             1.00      1 D:xz            5
                        (      33.824 eV)
   123     123       --         1.243 au  C             1.00      1 D:yz            5
                        (      33.824 eV)
   124     124       --         4.016 au  C             1.00      1 F:z3            5
                        (     109.271 eV)
   125     125       --         4.016 au  C             1.00      1 F:z             5
                        (     109.271 eV)
   126     126       --         4.016 au  C             1.00      1 F:xyz           5
                        (     109.271 eV)
   127     127       --         4.016 au  C             1.00      1 F:z2x           5
                        (     109.271 eV)
   128     128       --         4.016 au  C             1.00      1 F:z2y           5
                        (     109.271 eV)
   129     129       --         4.016 au  C             1.00      1 F:x             5
                        (     109.271 eV)
   130     130       --         4.016 au  C             1.00      1 F:y             5
                        (     109.271 eV)
   131     131      2.000     -10.066 au  C             1.00      1 S               6
                        (    -273.921 eV)
   132     132      2.000      -0.501 au  C             1.00      2 S               6
                        (     -13.620 eV)
   133     133       --         0.373 au  C             1.00      3 S               6
                        (      10.158 eV)
   134     134       --         5.405 au  C             1.00      4 S               6
                        (     147.073 eV)
   135     135       --        49.848 au  C             1.00      5 S               6
                        (    1356.422 eV)
   136     136      0.667      -0.193 au  C             1.00      1 P:x             6
                        (      -5.239 eV)
   137     137       --         0.169 au  C             1.00      2 P:x             6
                        (       4.589 eV)
   138     138       --         2.013 au  C             1.00      3 P:x             6
                        (      54.789 eV)
   139     139      0.667      -0.193 au  C             1.00      1 P:y             6
                        (      -5.239 eV)
   140     140       --         0.169 au  C             1.00      2 P:y             6
                        (       4.589 eV)
   141     141       --         2.013 au  C             1.00      3 P:y             6
                        (      54.789 eV)
   142     142      0.667      -0.193 au  C             1.00      1 P:z             6
                        (      -5.239 eV)
   143     143       --         0.169 au  C             1.00      2 P:z             6
                        (       4.589 eV)
   144     144       --         2.013 au  C             1.00      3 P:z             6
                        (      54.789 eV)
   145     145       --         1.243 au  C             1.00      1 D:z2            6
                        (      33.824 eV)
   146     146       --         1.243 au  C             1.00      1 D:x2-y2         6
                        (      33.824 eV)
   147     147       --         1.243 au  C             1.00      1 D:xy            6
                        (      33.824 eV)
   148     148       --         1.243 au  C             1.00      1 D:xz            6
                        (      33.824 eV)
   149     149       --         1.243 au  C             1.00      1 D:yz            6
                        (      33.824 eV)
   150     150       --         4.016 au  C             1.00      1 F:z3            6
                        (     109.271 eV)
   151     151       --         4.016 au  C             1.00      1 F:z             6
                        (     109.271 eV)
   152     152       --         4.016 au  C             1.00      1 F:xyz           6
                        (     109.271 eV)
   153     153       --         4.016 au  C             1.00      1 F:z2x           6
                        (     109.271 eV)
   154     154       --         4.016 au  C             1.00      1 F:z2y           6
                        (     109.271 eV)
   155     155       --         4.016 au  C             1.00      1 F:x             6
                        (     109.271 eV)
   156     156       --         4.016 au  C             1.00      1 F:y             6
                        (     109.271 eV)
   157     157      2.000     -10.066 au  C             1.00      1 S               7
                        (    -273.921 eV)
   158     158      2.000      -0.501 au  C             1.00      2 S               7
                        (     -13.620 eV)
   159     159       --         0.373 au  C             1.00      3 S               7
                        (      10.158 eV)
   160     160       --         5.405 au  C             1.00      4 S               7
                        (     147.073 eV)
   161     161       --        49.848 au  C             1.00      5 S               7
                        (    1356.422 eV)
   162     162      0.667      -0.193 au  C             1.00      1 P:x             7
                        (      -5.239 eV)
   163     163       --         0.169 au  C             1.00      2 P:x             7
                        (       4.589 eV)
   164     164       --         2.013 au  C             1.00      3 P:x             7
                        (      54.789 eV)
   165     165      0.667      -0.193 au  C             1.00      1 P:y             7
                        (      -5.239 eV)
   166     166       --         0.169 au  C             1.00      2 P:y             7
                        (       4.589 eV)
   167     167       --         2.013 au  C             1.00      3 P:y             7
                        (      54.789 eV)
   168     168      0.667      -0.193 au  C             1.00      1 P:z             7
                        (      -5.239 eV)
   169     169       --         0.169 au  C             1.00      2 P:z             7
                        (       4.589 eV)
   170     170       --         2.013 au  C             1.00      3 P:z             7
                        (      54.789 eV)
   171     171       --         1.243 au  C             1.00      1 D:z2            7
                        (      33.824 eV)
   172     172       --         1.243 au  C             1.00      1 D:x2-y2         7
                        (      33.824 eV)
   173     173       --         1.243 au  C             1.00      1 D:xy            7
                        (      33.824 eV)
   174     174       --         1.243 au  C             1.00      1 D:xz            7
                        (      33.824 eV)
   175     175       --         1.243 au  C             1.00      1 D:yz            7
                        (      33.824 eV)
   176     176       --         4.016 au  C             1.00      1 F:z3            7
                        (     109.271 eV)
   177     177       --         4.016 au  C             1.00      1 F:z             7
                        (     109.271 eV)
   178     178       --         4.016 au  C             1.00      1 F:xyz           7
                        (     109.271 eV)
   179     179       --         4.016 au  C             1.00      1 F:z2x           7
                        (     109.271 eV)
   180     180       --         4.016 au  C             1.00      1 F:z2y           7
                        (     109.271 eV)
   181     181       --         4.016 au  C             1.00      1 F:x             7
                        (     109.271 eV)
   182     182       --         4.016 au  C             1.00      1 F:y             7
                        (     109.271 eV)
   183     183      2.000     -18.941 au  O             1.00      1 S               8
                        (    -515.403 eV)
   184     184      2.000      -0.876 au  O             1.00      2 S               8
                        (     -23.838 eV)
   185     185       --         0.791 au  O             1.00      3 S               8
                        (      21.524 eV)
   186     186       --        13.422 au  O             1.00      4 S               8
                        (     365.226 eV)
   187     187       --       121.561 au  O             1.00      5 S               8
                        (    3307.838 eV)
   188     188      1.333      -0.331 au  O             1.00      1 P:x             8
                        (      -9.020 eV)
   189     189       --         0.347 au  O             1.00      2 P:x             8
                        (       9.437 eV)
   190     190       --         3.820 au  O             1.00      3 P:x             8
                        (     103.939 eV)
   191     191      1.333      -0.331 au  O             1.00      1 P:y             8
                        (      -9.020 eV)
   192     192       --         0.347 au  O             1.00      2 P:y             8
                        (       9.437 eV)
   193     193       --         3.820 au  O             1.00      3 P:y             8
                        (     103.939 eV)
   194     194      1.333      -0.331 au  O             1.00      1 P:z             8
                        (      -9.020 eV)
   195     195       --         0.347 au  O             1.00      2 P:z             8
                        (       9.437 eV)
   196     196       --         3.820 au  O             1.00      3 P:z             8
                        (     103.939 eV)
   197     197       --         1.071 au  O             1.00      1 D:z2            8
                        (      29.134 eV)
   198     198       --         1.071 au  O             1.00      1 D:x2-y2         8
                        (      29.134 eV)
   199     199       --         1.071 au  O             1.00      1 D:xy            8
                        (      29.134 eV)
   200     200       --         1.071 au  O             1.00      1 D:xz            8
                        (      29.134 eV)
   201     201       --         1.071 au  O             1.00      1 D:yz            8
                        (      29.134 eV)
   202     202       --         3.359 au  O             1.00      1 F:z3            8
                        (      91.410 eV)
   203     203       --         3.359 au  O             1.00      1 F:z             8
                        (      91.410 eV)
   204     204       --         3.359 au  O             1.00      1 F:xyz           8
                        (      91.410 eV)
   205     205       --         3.359 au  O             1.00      1 F:z2x           8
                        (      91.410 eV)
   206     206       --         3.359 au  O             1.00      1 F:z2y           8
                        (      91.410 eV)
   207     207       --         3.359 au  O             1.00      1 F:x             8
                        (      91.410 eV)
   208     208       --         3.359 au  O             1.00      1 F:y             8
                        (      91.410 eV)
   209     209      2.000     -18.941 au  O             1.00      1 S               9
                        (    -515.403 eV)
   210     210      2.000      -0.876 au  O             1.00      2 S               9
                        (     -23.838 eV)
   211     211       --         0.791 au  O             1.00      3 S               9
                        (      21.524 eV)
   212     212       --        13.422 au  O             1.00      4 S               9
                        (     365.226 eV)
   213     213       --       121.561 au  O             1.00      5 S               9
                        (    3307.838 eV)
   214     214      1.333      -0.331 au  O             1.00      1 P:x             9
                        (      -9.020 eV)
   215     215       --         0.347 au  O             1.00      2 P:x             9
                        (       9.437 eV)
   216     216       --         3.820 au  O             1.00      3 P:x             9
                        (     103.939 eV)
   217     217      1.333      -0.331 au  O             1.00      1 P:y             9
                        (      -9.020 eV)
   218     218       --         0.347 au  O             1.00      2 P:y             9
                        (       9.437 eV)
   219     219       --         3.820 au  O             1.00      3 P:y             9
                        (     103.939 eV)
   220     220      1.333      -0.331 au  O             1.00      1 P:z             9
                        (      -9.020 eV)
   221     221       --         0.347 au  O             1.00      2 P:z             9
                        (       9.437 eV)
   222     222       --         3.820 au  O             1.00      3 P:z             9
                        (     103.939 eV)
   223     223       --         1.071 au  O             1.00      1 D:z2            9
                        (      29.134 eV)
   224     224       --         1.071 au  O             1.00      1 D:x2-y2         9
                        (      29.134 eV)
   225     225       --         1.071 au  O             1.00      1 D:xy            9
                        (      29.134 eV)
   226     226       --         1.071 au  O             1.00      1 D:xz            9
                        (      29.134 eV)
   227     227       --         1.071 au  O             1.00      1 D:yz            9
                        (      29.134 eV)
   228     228       --         3.359 au  O             1.00      1 F:z3            9
                        (      91.410 eV)
   229     229       --         3.359 au  O             1.00      1 F:z             9
                        (      91.410 eV)
   230     230       --         3.359 au  O             1.00      1 F:xyz           9
                        (      91.410 eV)
   231     231       --         3.359 au  O             1.00      1 F:z2x           9
                        (      91.410 eV)
   232     232       --         3.359 au  O             1.00      1 F:z2y           9
                        (      91.410 eV)
   233     233       --         3.359 au  O             1.00      1 F:x             9
                        (      91.410 eV)
   234     234       --         3.359 au  O             1.00      1 F:y             9
                        (      91.410 eV)
   235     235      1.000      -0.240 au  H             1.00      1 S              10
                        (      -6.532 eV)
   236     236       --         0.088 au  H             1.00      2 S              10
                        (       2.394 eV)
   237     237       --         1.502 au  H             1.00      3 S              10
                        (      40.869 eV)
   238     238       --         0.406 au  H             1.00      1 P:x            10
                        (      11.051 eV)
   239     239       --         0.406 au  H             1.00      1 P:y            10
                        (      11.051 eV)
   240     240       --         0.406 au  H             1.00      1 P:z            10
                        (      11.051 eV)
   241     241       --         2.569 au  H             1.00      1 D:z2           10
                        (      69.917 eV)
   242     242       --         2.569 au  H             1.00      1 D:x2-y2        10
                        (      69.917 eV)
   243     243       --         2.569 au  H             1.00      1 D:xy           10
                        (      69.917 eV)
   244     244       --         2.569 au  H             1.00      1 D:xz           10
                        (      69.917 eV)
   245     245       --         2.569 au  H             1.00      1 D:yz           10
                        (      69.917 eV)
   246     246      1.000      -0.240 au  H             1.00      1 S              11
                        (      -6.532 eV)
   247     247       --         0.088 au  H             1.00      2 S              11
                        (       2.394 eV)
   248     248       --         1.502 au  H             1.00      3 S              11
                        (      40.869 eV)
   249     249       --         0.406 au  H             1.00      1 P:x            11
                        (      11.051 eV)
   250     250       --         0.406 au  H             1.00      1 P:y            11
                        (      11.051 eV)
   251     251       --         0.406 au  H             1.00      1 P:z            11
                        (      11.051 eV)
   252     252       --         2.569 au  H             1.00      1 D:z2           11
                        (      69.917 eV)
   253     253       --         2.569 au  H             1.00      1 D:x2-y2        11
                        (      69.917 eV)
   254     254       --         2.569 au  H             1.00      1 D:xy           11
                        (      69.917 eV)
   255     255       --         2.569 au  H             1.00      1 D:xz           11
                        (      69.917 eV)
   256     256       --         2.569 au  H             1.00      1 D:yz           11
                        (      69.917 eV)
   257     257      1.000      -0.240 au  H             1.00      1 S              12
                        (      -6.532 eV)
   258     258       --         0.088 au  H             1.00      2 S              12
                        (       2.394 eV)
   259     259       --         1.502 au  H             1.00      3 S              12
                        (      40.869 eV)
   260     260       --         0.406 au  H             1.00      1 P:x            12
                        (      11.051 eV)
   261     261       --         0.406 au  H             1.00      1 P:y            12
                        (      11.051 eV)
   262     262       --         0.406 au  H             1.00      1 P:z            12
                        (      11.051 eV)
   263     263       --         2.569 au  H             1.00      1 D:z2           12
                        (      69.917 eV)
   264     264       --         2.569 au  H             1.00      1 D:x2-y2        12
                        (      69.917 eV)
   265     265       --         2.569 au  H             1.00      1 D:xy           12
                        (      69.917 eV)
   266     266       --         2.569 au  H             1.00      1 D:xz           12
                        (      69.917 eV)
   267     267       --         2.569 au  H             1.00      1 D:yz           12
                        (      69.917 eV)
   268     268      1.000      -0.240 au  H             1.00      1 S              13
                        (      -6.532 eV)
   269     269       --         0.088 au  H             1.00      2 S              13
                        (       2.394 eV)
   270     270       --         1.502 au  H             1.00      3 S              13
                        (      40.869 eV)
   271     271       --         0.406 au  H             1.00      1 P:x            13
                        (      11.051 eV)
   272     272       --         0.406 au  H             1.00      1 P:y            13
                        (      11.051 eV)
   273     273       --         0.406 au  H             1.00      1 P:z            13
                        (      11.051 eV)
   274     274       --         2.569 au  H             1.00      1 D:z2           13
                        (      69.917 eV)
   275     275       --         2.569 au  H             1.00      1 D:x2-y2        13
                        (      69.917 eV)
   276     276       --         2.569 au  H             1.00      1 D:xy           13
                        (      69.917 eV)
   277     277       --         2.569 au  H             1.00      1 D:xz           13
                        (      69.917 eV)
   278     278       --         2.569 au  H             1.00      1 D:yz           13
                        (      69.917 eV)
   279     279      1.000      -0.240 au  H             1.00      1 S              14
                        (      -6.532 eV)
   280     280       --         0.088 au  H             1.00      2 S              14
                        (       2.394 eV)
   281     281       --         1.502 au  H             1.00      3 S              14
                        (      40.869 eV)
   282     282       --         0.406 au  H             1.00      1 P:x            14
                        (      11.051 eV)
   283     283       --         0.406 au  H             1.00      1 P:y            14
                        (      11.051 eV)
   284     284       --         0.406 au  H             1.00      1 P:z            14
                        (      11.051 eV)
   285     285       --         2.569 au  H             1.00      1 D:z2           14
                        (      69.917 eV)
   286     286       --         2.569 au  H             1.00      1 D:x2-y2        14
                        (      69.917 eV)
   287     287       --         2.569 au  H             1.00      1 D:xy           14
                        (      69.917 eV)
   288     288       --         2.569 au  H             1.00      1 D:xz           14
                        (      69.917 eV)
   289     289       --         2.569 au  H             1.00      1 D:yz           14
                        (      69.917 eV)
   290     290      1.000      -0.240 au  H             1.00      1 S              15
                        (      -6.532 eV)
   291     291       --         0.088 au  H             1.00      2 S              15
                        (       2.394 eV)
   292     292       --         1.502 au  H             1.00      3 S              15
                        (      40.869 eV)
   293     293       --         0.406 au  H             1.00      1 P:x            15
                        (      11.051 eV)
   294     294       --         0.406 au  H             1.00      1 P:y            15
                        (      11.051 eV)
   295     295       --         0.406 au  H             1.00      1 P:z            15
                        (      11.051 eV)
   296     296       --         2.569 au  H             1.00      1 D:z2           15
                        (      69.917 eV)
   297     297       --         2.569 au  H             1.00      1 D:x2-y2        15
                        (      69.917 eV)
   298     298       --         2.569 au  H             1.00      1 D:xy           15
                        (      69.917 eV)
   299     299       --         2.569 au  H             1.00      1 D:xz           15
                        (      69.917 eV)
   300     300       --         2.569 au  H             1.00      1 D:yz           15
                        (      69.917 eV)
   301     301      1.000      -0.240 au  H             1.00      1 S              16
                        (      -6.532 eV)
   302     302       --         0.088 au  H             1.00      2 S              16
                        (       2.394 eV)
   303     303       --         1.502 au  H             1.00      3 S              16
                        (      40.869 eV)
   304     304       --         0.406 au  H             1.00      1 P:x            16
                        (      11.051 eV)
   305     305       --         0.406 au  H             1.00      1 P:y            16
                        (      11.051 eV)
   306     306       --         0.406 au  H             1.00      1 P:z            16
                        (      11.051 eV)
   307     307       --         2.569 au  H             1.00      1 D:z2           16
                        (      69.917 eV)
   308     308       --         2.569 au  H             1.00      1 D:x2-y2        16
                        (      69.917 eV)
   309     309       --         2.569 au  H             1.00      1 D:xy           16
                        (      69.917 eV)
   310     310       --         2.569 au  H             1.00      1 D:xz           16
                        (      69.917 eV)
   311     311       --         2.569 au  H             1.00      1 D:yz           16
                        (      69.917 eV)
   312     312      1.000      -0.240 au  H             1.00      1 S              17
                        (      -6.532 eV)
   313     313       --         0.088 au  H             1.00      2 S              17
                        (       2.394 eV)
   314     314       --         1.502 au  H             1.00      3 S              17
                        (      40.869 eV)
   315     315       --         0.406 au  H             1.00      1 P:x            17
                        (      11.051 eV)
   316     316       --         0.406 au  H             1.00      1 P:y            17
                        (      11.051 eV)
   317     317       --         0.406 au  H             1.00      1 P:z            17
                        (      11.051 eV)
   318     318       --         2.569 au  H             1.00      1 D:z2           17
                        (      69.917 eV)
   319     319       --         2.569 au  H             1.00      1 D:x2-y2        17
                        (      69.917 eV)
   320     320       --         2.569 au  H             1.00      1 D:xy           17
                        (      69.917 eV)
   321     321       --         2.569 au  H             1.00      1 D:xz           17
                        (      69.917 eV)
   322     322       --         2.569 au  H             1.00      1 D:yz           17
                        (      69.917 eV)



 ================================
 (Slater-type)  F U N C T I O N S  ***  (Basis and Fit)  ***
 ================================
  

 Atom Type    1  (C)
 ==============

 Valence Basis Sets:  10
 -----------------------
   1 S    7.680000
   1 S    5.000000
   2 S    1.280000
   2 S    2.100000
   2 S    4.600000
   2 P    0.820000
   2 P    1.480000
   2 P    2.940000
   3 D    2.200000
   4 F    3.300000

 Atom Type    2  (O)
 ==============

 Valence Basis Sets:  10
 -----------------------
   1 S    9.800000
   1 S    6.800000
   2 S    7.580000
   2 S    2.880000
   2 S    1.720000
   2 P    4.080000
   2 P    2.080000
   2 P    1.120000
   3 D    2.000000
   4 F    3.000000

 Atom Type    3  (H)
 ==============

 Valence Basis Sets:   5
 -----------------------
   1 S    0.690000
   1 S    0.920000
   1 S    1.580000
   2 P    1.250000
   3 D    2.500000


 BAS: List of all Elementary Cartesian Basis Functions
 =====================================================

 The numbering in the list below (to the right of the function characteristics) is referred
 to in print-outs of MO eigenvectors and Mulliken populations in the BAS representation
 (as contrasted to the SFO representation).

 Notes:
 1. The functions are characterized by a polynomial prefactor (powers of x,y,z and r) and
    an exponential decay factor alpha.
 2. Since the basis sets are specific for an atom TYPE, the individual functions occur on
    all atoms of that type.
 3. The word 'Core' in the left margin signals that it is a Core Function (CF) : not a
    degree of freedom in the valence set, but only used to ensure orthogonalization of
    the other valence basis functions on the frozen Core Orbitals.


 (power of) X  Y  Z  R     Alpha  on Atom
            ==========     =====     ==========

 C                                    1    2    3    4    5    6    7
                                  ---------------------------------------------------------------------------
            0  0  0  0     7.680      1   31   61   91  121  151  181
            0  0  0  0     5.000      2   32   62   92  122  152  182
            0  0  0  1     1.280      3   33   63   93  123  153  183
            0  0  0  1     2.100      4   34   64   94  124  154  184
            0  0  0  1     4.600      5   35   65   95  125  155  185
            1  0  0  0     0.820      6   36   66   96  126  156  186
            0  1  0  0     0.820      7   37   67   97  127  157  187
            0  0  1  0     0.820      8   38   68   98  128  158  188
            1  0  0  0     1.480      9   39   69   99  129  159  189
            0  1  0  0     1.480     10   40   70  100  130  160  190
            0  0  1  0     1.480     11   41   71  101  131  161  191
            1  0  0  0     2.940     12   42   72  102  132  162  192
            0  1  0  0     2.940     13   43   73  103  133  163  193
            0  0  1  0     2.940     14   44   74  104  134  164  194
            2  0  0  0     2.200     15   45   75  105  135  165  195
            1  1  0  0     2.200     16   46   76  106  136  166  196
            1  0  1  0     2.200     17   47   77  107  137  167  197
            0  2  0  0     2.200     18   48   78  108  138  168  198
            0  1  1  0     2.200     19   49   79  109  139  169  199
            0  0  2  0     2.200     20   50   80  110  140  170  200
            3  0  0  0     3.300     21   51   81  111  141  171  201
            2  1  0  0     3.300     22   52   82  112  142  172  202
            2  0  1  0     3.300     23   53   83  113  143  173  203
            1  2  0  0     3.300     24   54   84  114  144  174  204
            1  1  1  0     3.300     25   55   85  115  145  175  205
            1  0  2  0     3.300     26   56   86  116  146  176  206
            0  3  0  0     3.300     27   57   87  117  147  177  207
            0  2  1  0     3.300     28   58   88  118  148  178  208
            0  1  2  0     3.300     29   59   89  119  149  179  209
            0  0  3  0     3.300     30   60   90  120  150  180  210

 O                                    8    9
                                  ---------------------------------------------------------------------------
            0  0  0  0     9.800    211  241
            0  0  0  0     6.800    212  242
            0  0  0  1     7.580    213  243
            0  0  0  1     2.880    214  244
            0  0  0  1     1.720    215  245
            1  0  0  0     4.080    216  246
            0  1  0  0     4.080    217  247
            0  0  1  0     4.080    218  248
            1  0  0  0     2.080    219  249
            0  1  0  0     2.080    220  250
            0  0  1  0     2.080    221  251
            1  0  0  0     1.120    222  252
            0  1  0  0     1.120    223  253
            0  0  1  0     1.120    224  254
            2  0  0  0     2.000    225  255
            1  1  0  0     2.000    226  256
            1  0  1  0     2.000    227  257
            0  2  0  0     2.000    228  258
            0  1  1  0     2.000    229  259
            0  0  2  0     2.000    230  260
            3  0  0  0     3.000    231  261
            2  1  0  0     3.000    232  262
            2  0  1  0     3.000    233  263
            1  2  0  0     3.000    234  264
            1  1  1  0     3.000    235  265
            1  0  2  0     3.000    236  266
            0  3  0  0     3.000    237  267
            0  2  1  0     3.000    238  268
            0  1  2  0     3.000    239  269
            0  0  3  0     3.000    240  270

 H                                   10   11   12   13   14   15   16   17
                                  ---------------------------------------------------------------------------
            0  0  0  0     0.690    271  283  295  307  319  331  343  355
            0  0  0  0     0.920    272  284  296  308  320  332  344  356
            0  0  0  0     1.580    273  285  297  309  321  333  345  357
            1  0  0  0     1.250    274  286  298  310  322  334  346  358
            0  1  0  0     1.250    275  287  299  311  323  335  347  359
            0  0  1  0     1.250    276  288  300  312  324  336  348  360
            2  0  0  0     2.500    277  289  301  313  325  337  349  361
            1  1  0  0     2.500    278  290  302  314  326  338  350  362
            1  0  1  0     2.500    279  291  303  315  327  339  351  363
            0  2  0  0     2.500    280  292  304  316  328  340  352  364
            0  1  1  0     2.500    281  293  305  317  329  341  353  365
            0  0  2  0     2.500    282  294  306  318  330  342  354  366

 Total number of charge fitting functions (nprimf)      1156
 Total number of Cartesian basis functions (naos)        366
 Total number of Cartesian core functions  (ncos)          0

 ***************************************************************************************************



                                              ***********************
                                              *  T E C H N I C A L  *
                                              ***********************
  



 =============================================================
 P A R A L L E L I Z A T I O N  and  V E C T O R I Z A T I O N
 =============================================================
  
 Nr of parallel processes:                                1
 Maximum vector length in NumInt loops:                 128



 =====================
 S C F   U P D A T E S
 =====================
  
 Max. nr. of cycles:                               200
 Convergence criterion:                              0.0000010000
   secondary criterion:                              0.0010000000

 Mix parameter (when DIIS does not apply):           0.2000000000
 Mixed ADIIS+SDIIS will be used                  
    Max number of expansion vectors:                10
    Pure ADIIS when Max([F,P]) is above              0.1000000000
    Pure SDIIS when Max([F,P]) is below              0.0010000000
 Automatic ElectronSmearing (in case of problematic SCF convergence) disabled



 =================
 P R E C I S I O N  ***  (General: NumInt, NeglectFunctionTails, ...)  ***
 =================
  

 NumInt:           Target precision:                 4.0000000000
 -------           Initial precision:                4.0000000000
                   Min. precision (optimization):    4.0000000000

 Neglect Functions:          Basis functions:        0.1000000000E-05
 ------------------          Fit functions:          0.1000000000E-05



 ===========================
 L I N E A R   S C A L I N G
 ===========================
  

 Cut-off radii density fit:                        0.1000000000E-07
 Overlap cut-off criterion AO matrix elements:     0.1000000000E-05
 Cut-offs for Coulomb potential and fitted density:0.1000000000E-07
 Cut-off criterion for Coulomb multipole terms:    0.1000000000E-07
 Progressive Convergence parameter:                 0.000000000    
 ***************************************************************************************************



                                            ***************************
                                            *  C O M P U T A T I O N  *
                                            ***************************
  

 Number of elements of the density matrix on this node (used, total):     67161     67161



 ===========================================
 Numerical Integration : Fuzzy Cells (Becke)
 ===========================================
  
 Becke grid quality: NORMAL         
  
 Lebedev angular grid order:             min:  11 max:  23
 Nr. of radial points:                   min:  46 max:  52

 Total nr. of points:     110278
 Nr. of blocks:              862
 Block length:               128
 Nr. of dummy points:         58


 Test of Precision of the Numerical Integration Grid
 ===================================================

 Integral of the Total Core Density:                   0.00000000000000



 ========================
 Density Fitting (zlmFit)
 ========================
  
 ZlmFit Fit Quality: NORMAL         
  
 Max L-expansion:                        min:   6 max:   7
 Nr. of radial interpolation points:     min:  39 max:  54



 =====
 S C F  ***  ScaSCF  ***
 =====
  
 Initial density matrix is calculated as sum of fragments

 CYCLE    1
 SCF Error: norm([F,P])=      7.388216022411, max([F,P])=      1.256933102271
 orbitals (Q,E):
 ---------------
 A :24...43          ( 2.00    -0.5369)  ( 2.00    -0.5268)  ( 2.00    -0.5030)  ( 2.00    -0.4995)
                     ( 2.00    -0.4816)  ( 2.00    -0.4630)  ( 2.00    -0.4444)  ( 2.00    -0.4089)
                     ( 2.00    -0.3805)  ( 2.00    -0.3443)  ( 0.00    -0.2144)  ( 0.00    -0.1567)
                     ( 0.00    -0.0879)  ( 0.00    -0.0656)  ( 0.00    -0.0497)  ( 0.00    -0.0406)
                     ( 0.00    -0.0270)  ( 0.00    -0.0191)  ( 0.00    -0.0137)  ( 0.00    -0.0070)

 CYCLE    2
   MIX coefficients:  0.8000  0.2000
 SCF Error: norm([F,P])=      1.083454037395, max([F,P])=      0.159222977886
 orbitals (Q,E):
 ---------------
 A :24...34          ( 2.00    -0.4729)  ( 2.00    -0.4627)  ( 2.00    -0.4454)  ( 2.00    -0.4346)
                     ( 2.00    -0.4189)  ( 2.00    -0.4058)  ( 2.00    -0.3883)  ( 2.00    -0.3373)
                     ( 2.00    -0.3132)  ( 2.00    -0.2750)  ( 0.00    -0.1552)

 CYCLE    3
  SDIIS (wt  0.000): -1.0323  2.0323
 A-DIIS (wt  1.000):  0.0000  1.0000
  DIIS coefficients:  0.0000  1.0000
 SCF Error: norm([F,P])=      0.602724189583, max([F,P])=      0.087624525926
 orbitals (Q,E):
 ---------------
 A :24...34          ( 2.00    -0.2888)  ( 2.00    -0.2707)  ( 2.00    -0.2642)  ( 2.00    -0.2531)
                     ( 2.00    -0.2322)  ( 2.00    -0.2192)  ( 2.00    -0.2083)  ( 2.00    -0.1440)
                     ( 2.00    -0.1247)  ( 2.00    -0.0823)  ( 0.00     0.0033)

 CYCLE    4
  SDIIS (wt  0.000):  0.1307  0.4263  0.4430
 A-DIIS (wt  1.000):  0.0000  0.6503  0.3497
  DIIS coefficients:  0.0000  0.6503  0.3497
 SCF Error: norm([F,P])=      0.886757610928, max([F,P])=      0.155061618681
 orbitals (Q,E):
 ---------------
 A :24...34          ( 2.00    -0.3587)  ( 2.00    -0.3439)  ( 2.00    -0.3348)  ( 2.00    -0.3264)
                     ( 2.00    -0.3045)  ( 2.00    -0.2931)  ( 2.00    -0.2819)  ( 2.00    -0.2293)
                     ( 2.00    -0.2078)  ( 2.00    -0.1671)  ( 0.00    -0.0599)

 CYCLE    5
  SDIIS (wt  0.849): -0.0015  0.2419  0.1118  0.6478
 A-DIIS (wt  0.151):  0.0000  0.0000  0.0000  1.0000
  DIIS coefficients: -0.0012  0.2053  0.0949  0.7010
 SCF Error: norm([F,P])=      0.113510861083, max([F,P])=      0.015958393945
 orbitals (Q,E):
 ---------------
 A :24...34          ( 2.00    -0.3683)  ( 2.00    -0.3540)  ( 2.00    -0.3433)  ( 2.00    -0.3339)
                     ( 2.00    -0.3161)  ( 2.00    -0.3052)  ( 2.00    -0.2907)  ( 2.00    -0.2344)
                     ( 2.00    -0.2131)  ( 2.00    -0.1735)  ( 0.00    -0.0694)

 CYCLE    6
  SDIIS (wt  0.849): -0.0113  0.1286  0.0383  0.4763  0.3681
 A-DIIS (wt  0.151):  0.0000  0.0000  0.0000  0.3246  0.6754
  DIIS coefficients: -0.0096  0.1091  0.0325  0.4534  0.4146
 SCF Error: norm([F,P])=      0.088569223849, max([F,P])=      0.016242926269
 orbitals (Q,E):
 ---------------
 A :24...34          ( 2.00    -0.3682)  ( 2.00    -0.3530)  ( 2.00    -0.3432)  ( 2.00    -0.3345)
                     ( 2.00    -0.3139)  ( 2.00    -0.3032)  ( 2.00    -0.2905)  ( 2.00    -0.2355)
                     ( 2.00    -0.2140)  ( 2.00    -0.1740)  ( 0.00    -0.0667)

 CYCLE    7
  SDIIS (wt  0.924): -0.0012  0.0413  0.0126  0.2143  0.2820  0.4510
 A-DIIS (wt  0.076):  0.0000  0.0000  0.0000  0.0000  0.1389  0.8611
  DIIS coefficients: -0.0011  0.0382  0.0116  0.1980  0.2711  0.4822
 SCF Error: norm([F,P])=      0.031454821286, max([F,P])=      0.008528411399
 orbitals (Q,E):
 ---------------
 A :24...34          ( 2.00    -0.3679)  ( 2.00    -0.3532)  ( 2.00    -0.3437)  ( 2.00    -0.3342)
                     ( 2.00    -0.3144)  ( 2.00    -0.3030)  ( 2.00    -0.2898)  ( 2.00    -0.2351)
                     ( 2.00    -0.2138)  ( 2.00    -0.1739)  ( 0.00    -0.0672)

 CYCLE    8
  SDIIS (wt  0.935): -0.0064  0.0232  0.0013  0.1014  0.1660  0.3843  0.3302
 A-DIIS (wt  0.065):  0.0000  0.0000  0.0000  0.0000  0.0000  0.3242  0.6758
  DIIS coefficients: -0.0060  0.0217  0.0012  0.0949  0.1553  0.3804  0.3525
 SCF Error: norm([F,P])=      0.017531097076, max([F,P])=      0.007389134050
 orbitals (Q,E):
 ---------------
 A :24...34          ( 2.00    -0.3679)  ( 2.00    -0.3529)  ( 2.00    -0.3434)  ( 2.00    -0.3341)
                     ( 2.00    -0.3142)  ( 2.00    -0.3032)  ( 2.00    -0.2902)  ( 2.00    -0.2349)
                     ( 2.00    -0.2136)  ( 2.00    -0.1738)  ( 0.00    -0.0672)

 CYCLE    9
  SDIIS (wt  0.992): -0.0031  0.0106 -0.0001  0.0497  0.0861  0.2337  0.2603  0.3629
 A-DIIS (wt  0.008):  0.0000  0.0000  0.0000  0.0000  0.0000  0.0000  0.0639  0.9361
  DIIS coefficients: -0.0031  0.0105 -0.0001  0.0493  0.0854  0.2318  0.2587  0.3676
 SCF Error: norm([F,P])=      0.004907374992, max([F,P])=      0.001808857721
 orbitals (Q,E):
 ---------------
 A :24...34          ( 2.00    -0.3680)  ( 2.00    -0.3530)  ( 2.00    -0.3434)  ( 2.00    -0.3342)
                     ( 2.00    -0.3142)  ( 2.00    -0.3032)  ( 2.00    -0.2902)  ( 2.00    -0.2350)
                     ( 2.00    -0.2137)  ( 2.00    -0.1738)  ( 0.00    -0.0672)

 CYCLE   10
  SDIIS (wt  1.000):  0.0000  0.0019  0.0000  0.0155  0.0280  0.0848  0.1091  0.2325  0.5281
  DIIS coefficients:  0.0000  0.0019  0.0000  0.0155  0.0280  0.0848  0.1091  0.2325  0.5281
 SCF Error: norm([F,P])=      0.001108737006, max([F,P])=      0.000248397885
 orbitals (Q,E):
 ---------------
 A :24...34          ( 2.00    -0.3680)  ( 2.00    -0.3530)  ( 2.00    -0.3435)  ( 2.00    -0.3342)
                     ( 2.00    -0.3143)  ( 2.00    -0.3032)  ( 2.00    -0.2902)  ( 2.00    -0.2351)
                     ( 2.00    -0.2138)  ( 2.00    -0.1739)  ( 0.00    -0.0672)

 CYCLE   11
  SDIIS (wt  1.000):  0.0000  0.0005 -0.0001  0.0047  0.0090  0.0300  0.0436  0.1118  0.3175  0.4830
  DIIS coefficients:  0.0000  0.0005 -0.0001  0.0047  0.0090  0.0300  0.0436  0.1118  0.3175  0.4830
 SCF Error: norm([F,P])=      0.000341908660, max([F,P])=      0.000066379319
 orbitals (Q,E):
 ---------------
 A :24...34          ( 2.00    -0.3680)  ( 2.00    -0.3530)  ( 2.00    -0.3434)  ( 2.00    -0.3342)
                     ( 2.00    -0.3143)  ( 2.00    -0.3032)  ( 2.00    -0.2902)  ( 2.00    -0.2351)
                     ( 2.00    -0.2138)  ( 2.00    -0.1739)  ( 0.00    -0.0672)

 CYCLE   12
  SDIIS (wt  1.000):  0.0000 -0.0001  0.0006  0.0015  0.0058  0.0105  0.0358  0.1240  0.3362  0.4854
  DIIS coefficients:  0.0000 -0.0001  0.0006  0.0015  0.0058  0.0105  0.0358  0.1240  0.3362  0.4854
 SCF Error: norm([F,P])=      0.000148066844, max([F,P])=      0.000032335919
 orbitals (Q,E):
 ---------------
 A :24...34          ( 2.00    -0.3680)  ( 2.00    -0.3530)  ( 2.00    -0.3434)  ( 2.00    -0.3342)
                     ( 2.00    -0.3143)  ( 2.00    -0.3032)  ( 2.00    -0.2902)  ( 2.00    -0.2351)
                     ( 2.00    -0.2138)  ( 2.00    -0.1739)  ( 0.00    -0.0672)

 CYCLE   13
  SDIIS (wt  1.000): -0.0000  0.0001  0.0003  0.0010  0.0021  0.0089  0.0333  0.1243  0.2272  0.6028
  DIIS coefficients: -0.0000  0.0001  0.0003  0.0010  0.0021  0.0089  0.0333  0.1243  0.2272  0.6028
 SCF Error: norm([F,P])=      0.000025240764, max([F,P])=      0.000003681064
 orbitals (Q,E):
 ---------------
 A :24...34          ( 2.00    -0.3680)  ( 2.00    -0.3530)  ( 2.00    -0.3434)  ( 2.00    -0.3342)
                     ( 2.00    -0.3143)  ( 2.00    -0.3032)  ( 2.00    -0.2902)  ( 2.00    -0.2351)
                     ( 2.00    -0.2138)  ( 2.00    -0.1739)  ( 0.00    -0.0672)

 CYCLE   14
  SDIIS (wt  1.000): -0.0000 -0.0000 -0.0001  0.0001  0.0015  0.0074  0.0393  0.0838  0.3235  0.5444
  DIIS coefficients: -0.0000 -0.0000 -0.0001  0.0001  0.0015  0.0074  0.0393  0.0838  0.3235  0.5444
 SCF Error: norm([F,P])=      0.000008241092, max([F,P])=      0.000001625094
 orbitals (Q,E):
 ---------------
 A :24...34          ( 2.00    -0.3680)  ( 2.00    -0.3530)  ( 2.00    -0.3434)  ( 2.00    -0.3342)
                     ( 2.00    -0.3143)  ( 2.00    -0.3032)  ( 2.00    -0.2902)  ( 2.00    -0.2351)
                     ( 2.00    -0.2138)  ( 2.00    -0.1739)  ( 0.00    -0.0672)

 CYCLE   15
  SDIIS (wt  1.000):  0.0000  0.0000  0.0000  0.0004  0.0018  0.0095  0.0218  0.0965  0.2621  0.6079
  DIIS coefficients:  0.0000  0.0000  0.0000  0.0004  0.0018  0.0095  0.0218  0.0965  0.2621  0.6079
 SCF Error: norm([F,P])=      0.000002221230, max([F,P])=      0.000000383318
 orbitals (Q,E):
 ---------------
 A :24...34          ( 2.00    -0.3680)  ( 2.00    -0.3530)  ( 2.00    -0.3434)  ( 2.00    -0.3342)
                     ( 2.00    -0.3143)  ( 2.00    -0.3032)  ( 2.00    -0.2902)  ( 2.00    -0.2351)
                     ( 2.00    -0.2138)  ( 2.00    -0.1739)  ( 0.00    -0.0672)

 SCF CONVERGED

 CYCLE   16
 ***************************************************************************************************



                                                *******************
                                                *  R E S U L T S  *
                                                *******************
  
 *** Using FIT density in Focky
  SDIIS (wt  1.000): -0.0000  0.0000  0.0000  0.0003  0.0014  0.0032  0.0160  0.0547  0.1710  0.7533
  DIIS coefficients: -0.0000  0.0000  0.0000  0.0003  0.0014  0.0032  0.0160  0.0547  0.1710  0.7533
 SCF Error: norm([F,P])=      0.000000285279, max([F,P])=      0.000000066685

 Scaled ZORA Orbital Energies, per Irrep and Spin:
 =================================================
                        Occup              E (au)              E (eV)       Diff (eV) with prev. cycle
                        -----      --------------------        ------       --------------------------
 A
              24        2.000     -0.36800807261009E+00       -10.014               2.39E-07
              25        2.000     -0.35302287924689E+00        -9.606               5.83E-07
              26        2.000     -0.34344648149784E+00        -9.346               3.12E-07
              27        2.000     -0.33423052708895E+00        -9.095               8.10E-08
              28        2.000     -0.31426777537899E+00        -8.552               3.72E-07
              29        2.000     -0.30323941317173E+00        -8.252               2.17E-07
              30        2.000     -0.29019923377280E+00        -7.897               3.76E-08
              31        2.000     -0.23507281590063E+00        -6.397               3.09E-07
              32        2.000     -0.21376587751461E+00        -5.817               2.50E-07
              33        2.000     -0.17389101111080E+00        -4.732               1.51E-07
              34        0.000     -0.67198468037487E-01        -1.829
              35        0.000     -0.91029320795014E-02        -0.248
              36        0.000     -0.50460558234673E-02        -0.137
              37        0.000      0.86224561044935E-02         0.235
              38        0.000      0.19034922345933E-01         0.518
              39        0.000      0.34536679691742E-01         0.940
              40        0.000      0.39012181646488E-01         1.062
              41        0.000      0.41879984245452E-01         1.140
              42        0.000      0.52000848083390E-01         1.415
              43        0.000      0.64231072454107E-01         1.748
  
[...]
                                   -4.06%     3 S              21.524  0.00     9 O
                                   -3.47%     2 P:x             4.589  0.00     1 C
                                    3.28%     2 P:y             4.589  0.00     5 C
                                    3.18%     1 S              -6.532  1.00    12 H
                                    3.12%     1 P:z            -5.239  0.67     5 C
                                    3.09%     2 S             -23.838  2.00     9 O
                                   -3.02%     1 P:y            -5.239  0.67     6 C
                                    2.98%     1 P:x            -5.239  0.67     6 C
                                    2.72%     1 P:y            -5.239  0.67     2 C
                                   -2.42%     2 P:z             9.437  0.00     8 O
                                    1.88%     1 P:z            -5.239  0.67     7 C
                                    1.87%     2 S               2.394  0.00    12 H
                                   -1.86%     2 P:z             4.589  0.00     3 C
                                    1.78%     1 P:z            -5.239  0.67     2 C
                                   -1.75%     2 P:y             4.589  0.00     2 C
                                    1.73%     1 S              -6.532  1.00    15 H
                                    1.68%     2 S             -13.620  2.00     1 C
                                   -1.51%     2 P:x             4.589  0.00     3 C
                                    1.48%     1 P:x            11.051  0.00    11 H
                                    1.47%     1 S              -6.532  1.00    14 H
                                    1.36%     2 S               2.394  0.00    17 H
                                    1.36%     2 P:x             4.589  0.00     4 C
                                    1.32%     1 P:z            -9.020  1.33     9 O
                                    1.30%     2 S               2.394  0.00    16 H
                                    1.21%     1 P:x            -5.239  0.67     3 C
                                   -1.19%     1 P:x            -5.239  0.67     1 C
                                    1.13%     3 S              40.869  0.00    16 H
                                    1.12%     2 P:y             4.589  0.00     4 C
                                    1.09%     1 P:x            -5.239  0.67     7 C
                                   -1.05%     2 P:z             4.589  0.00     7 C
                                    1.01%     1 P:z            11.051  0.00    11 H
       2.128  0.00    45 A         34.16%     1 S              -6.532  1.00    12 H
                                   21.57%     1 S              -6.532  1.00    15 H
                                   14.98%     1 S              -6.532  1.00    13 H
                                  -10.43%     2 P:x             4.589  0.00     5 C
                                    9.89%     2 S               2.394  0.00    12 H
                                   -9.17%     2 P:y             4.589  0.00     3 C
                                    8.29%     2 S               2.394  0.00    15 H
                                   -7.99%     2 S               2.394  0.00    13 H
                                    7.24%     1 S              -6.532  1.00    11 H
                                    6.37%     1 P:z            -5.239  0.67     6 C
                                    6.12%     1 P:x            -5.239  0.67     5 C
                                   -4.12%     2 P:z             4.589  0.00     2 C
                                    4.05%     1 P:z            -5.239  0.67     5 C
                                   -3.19%     2 P:z             4.589  0.00     3 C
                                    2.71%     2 P:z             4.589  0.00     5 C
                                   -2.64%     2 P:y             4.589  0.00     5 C
                                    2.50%     1 P:y            -5.239  0.67     3 C
                                    2.49%     2 S             -13.620  2.00     3 C
                                   -2.43%     2 P:y             4.589  0.00     4 C
                                    2.25%     2 S             -13.620  2.00     2 C
                                   -2.19%     3 S              10.158  0.00     3 C
                                    2.19%     3 S              40.869  0.00    12 H
                                    2.07%     2 S               2.394  0.00    11 H
                                    1.66%     1 S              -6.532  1.00    14 H
                                    1.61%     3 S              40.869  0.00    15 H
                                    1.26%     1 P:z            -5.239  0.67     2 C
                                   -1.07%     2 P:y             4.589  0.00     2 C
                                    1.05%     1 P:z            -5.239  0.67     4 C
       3.309  0.00    46 A         12.08%     1 P:z            -5.239  0.67     3 C
                                   10.34%     1 P:y            -5.239  0.67     2 C
                                    9.97%     1 S              -6.532  1.00    11 H
                                   -9.60%     2 S               2.394  0.00    11 H
                                   -8.83%     3 S              10.158  0.00     2 C
                                    7.44%     2 S             -13.620  2.00     2 C
                                    7.32%     1 P:y            -5.239  0.67     1 C
                                    6.95%     2 S               2.394  0.00    12 H
                                    6.31%     1 P:z            -5.239  0.67     6 C
                                   -5.92%     2 P:y             4.589  0.00     2 C
                                    5.29%     2 S               2.394  0.00    17 H
                                    4.99%     2 P:y             4.589  0.00     5 C
                                   -4.78%     2 P:z             4.589  0.00     2 C
                                    4.63%     2 P:x             4.589  0.00     2 C
                                    3.99%     1 P:x            -5.239  0.67     2 C
                                   -3.92%     2 P:z             4.589  0.00     6 C
                                    3.71%     2 P:z             4.589  0.00     7 C
                                    3.59%     2 P:y             4.589  0.00     3 C
                                    3.52%     1 P:x            -9.020  1.33     9 O
                                    3.32%     2 S             -13.620  2.00     7 C
                                    3.26%     1 P:z            11.051  0.00    12 H
                                    2.65%     2 P:x             4.589  0.00     3 C
                                   -2.49%     1 S              -6.532  1.00    12 H
                                    2.46%     1 P:y            -5.239  0.67     6 C
                                    2.43%     2 S               2.394  0.00    10 H
                                    2.29%     1 P:y            -9.020  1.33     9 O
                                    2.21%     2 S             -13.620  2.00     3 C
                                    2.10%     1 P:z            -5.239  0.67     2 C
                                    2.07%     1 P:x            -5.239  0.67     6 C
                                    2.06%     1 P:y            -5.239  0.67     7 C
                                    1.99%     1 P:z            -5.239  0.67     5 C
                                    1.88%     2 S             -13.620  2.00     4 C
                                   -1.79%     2 P:x             4.589  0.00     6 C
                                    1.70%     2 P:z             4.589  0.00     1 C
                                    1.69%     2 P:y             4.589  0.00     1 C
                                    1.53%     1 P:z            -5.239  0.67     7 C
                                    1.30%     1 P:y            11.051  0.00    10 H
                                    1.21%     2 P:x             4.589  0.00     5 C
                                    1.15%     1 P:x            -5.239  0.67     3 C
                                    1.06%     1 P:x            -5.239  0.67     4 C
                                    1.01%     2 P:z             4.589  0.00     3 C
                                   -1.00%     1 S              -6.532  1.00    17 H
                                   -1.00%     1 P:y            -5.239  0.67     3 C



 =======================================================================
 Electrostatic potential at the Nuclei due to electrons and other nuclei
 =======================================================================
  
         Atom                  Potential
         ----                  ---------
     1)   C                  14.78161485
     2)   C                  14.72643844
     3)   C                  14.80372955
     4)   C                  14.73561202
     5)   O                  22.35279735
     6)   C                  14.72854493
     7)   C                  14.72569636
     8)   O                  22.40996585
     9)   C                  14.78253264
    10)   H                   1.09021535
    11)   H                   1.10563223
    12)   H                   1.09531865
    13)   H                   1.09696699
    14)   H                   1.09891147
    15)   H                   1.09942012
    16)   H                   1.09870631
    17)   H                   1.09194099
 Mulliken charges used for AMS results%charges...


    =====================
     CALCULATION RESULTS
    =====================

Energy (hartree)            -3.59496122


--------------
Atomic charges
--------------
  Index   Atom    Charge
      1      C    0.2033
      2      C    0.4916
      3      C    0.1058
      4      C    0.3482
      5      O   -0.5393
      6      C    0.9734
      7      C    0.4680
      8      O   -0.5434
      9      C    0.1858
     10      H   -0.2071
     11      H   -0.2221
     12      H   -0.2038
     13      H   -0.2420
     14      H   -0.1962
     15      H   -0.2012
     16      H   -0.2104
     17      H   -0.2106


Dipole moment vector    (Debye):    -0.51389632    0.39265427   -1.68562189
              magnitude (Debye):     1.80543290


-----------------------
Molecular orbitals info
-----------------------
n orbitals:              322
n spin:                    1

Note: only printing virtual orbitals with
      energy smaller than HOMO + 100. eV

HOMO (eV):              -4.7318
LUMO (eV):              -1.8286
HOMO-LUMO gap (eV):      2.9033

   Index   Energy (eV)    Occupation
     207       95.1957         0.000       
     206       94.6169         0.000       
     205       93.7684         0.000       
     204       93.3614         0.000       
     203       93.2199         0.000       
     202       92.7746         0.000       
     201       92.6669         0.000       
     200       92.3212         0.000       
     199       90.4004         0.000       
     198       90.1182         0.000       
     197       89.1355         0.000       
     196       88.6869         0.000       
     195       87.4546         0.000       
     194       87.1961         0.000       
     193       87.0218         0.000       
     192       86.4596         0.000       
     191       85.4315         0.000       
     190       83.8717         0.000       
     189       83.7267         0.000       
     188       82.6991         0.000       
     187       82.3758         0.000       
     186       81.3414         0.000       
     185       79.6444         0.000       
     184       79.1376         0.000       
     183       79.0658         0.000       
     182       78.8231         0.000       
     181       77.8987         0.000       
     180       77.6150         0.000       
     179       76.8141         0.000       
     178       76.6976         0.000       
     177       76.3862         0.000       
     176       76.1212         0.000       
     175       75.5633         0.000       
     174       74.7631         0.000       
     173       74.4341         0.000       
     172       73.8639         0.000       
     171       72.8269         0.000       
     170       71.9673         0.000       
     169       71.8462         0.000       
     168       69.0350         0.000       
     167       68.4045         0.000       
     166       67.4231         0.000       
     165       66.7129         0.000       
     164       65.9170         0.000       
     163       64.7437         0.000       
     162       64.1356         0.000       
     161       63.3256         0.000       
     160       62.7988         0.000       
     159       62.2062         0.000       
     158       61.8621         0.000       
     157       60.9330         0.000       
     156       60.3218         0.000       
     155       59.0578         0.000       
     154       58.5080         0.000       
     153       57.5255         0.000       
     152       56.9759         0.000       
     151       56.3526         0.000       
     150       55.8894         0.000       
     149       55.5955         0.000       
     148       54.6566         0.000       
     147       53.8072         0.000       
     146       53.1200         0.000       
     145       52.7872         0.000       
     144       51.9340         0.000       
     143       51.1429         0.000       
     142       50.1475         0.000       
     141       50.0174         0.000       
     140       49.0871         0.000       
     139       48.7099         0.000       
     138       48.0053         0.000       
     137       47.0680         0.000       
     136       46.3005         0.000       
     135       45.4788         0.000       
     134       44.8121         0.000       
     133       44.4799         0.000       
     132       43.5910         0.000       
     131       42.9757         0.000       
     130       42.6842         0.000       
     129       42.3748         0.000       
     128       41.9956         0.000       
     127       41.1472         0.000       
     126       40.5850         0.000       
     125       39.7868         0.000       
     124       39.5623         0.000       
     123       38.9888         0.000       
     122       38.8398         0.000       
     121       37.2476         0.000       
     120       36.6901         0.000       
     119       36.3463         0.000       
     118       35.7654         0.000       
     117       35.2133         0.000       
     116       35.0772         0.000       
     115       34.4926         0.000       
     114       33.6676         0.000       
     113       33.1090         0.000       
     112       32.3366         0.000       
     111       31.8063         0.000       
     110       31.3372         0.000       
     109       30.7713         0.000       
     108       30.1397         0.000       
     107       29.7240         0.000       
     106       29.4006         0.000       
     105       28.7925         0.000       
     104       28.5400         0.000       
     103       28.1175         0.000       
     102       27.2760         0.000       
     101       26.6089         0.000       
     100       26.2808         0.000       
      99       25.6275         0.000       
      98       25.4545         0.000       
      97       25.1209         0.000       
      96       24.6532         0.000       
      95       23.7221         0.000       
      94       22.6087         0.000       
      93       22.3798         0.000       
      92       21.8890         0.000       
      91       21.2426         0.000       
      90       20.8807         0.000       
      89       20.4399         0.000       
      88       20.0825         0.000       
      87       19.6580         0.000       
      86       18.7793         0.000       
      85       17.6913         0.000       
      84       17.3249         0.000       
      83       16.6162         0.000       
      82       16.4793         0.000       
      81       15.9748         0.000       
      80       15.1588         0.000       
      79       14.7965         0.000       
      78       13.5405         0.000       
      77       13.4845         0.000       
      76       13.1769         0.000       
      75       12.8766         0.000       
      74       11.5866         0.000       
      73       10.9695         0.000       
      72       10.7515         0.000       
      71       10.2359         0.000       
      70       10.0144         0.000       
      69        9.5338         0.000       
      68        9.3807         0.000       
      67        9.2173         0.000       
      66        8.9055         0.000       
      65        8.8269         0.000       
      64        8.7028         0.000       
      63        8.4058         0.000       
      62        8.3610         0.000       
      61        7.6556         0.000       
      60        7.3290         0.000       
      59        7.2164         0.000       
      58        6.7299         0.000       
      57        6.5272         0.000       
      56        6.0136         0.000       
      55        5.9679         0.000       
      54        5.6647         0.000       
      53        5.3099         0.000       
      52        5.0158         0.000       
      51        4.6890         0.000       
      50        4.1257         0.000       
      49        4.0523         0.000       
      48        3.7489         0.000       
      47        3.7062         0.000       
      46        3.3086         0.000       
      45        2.1278         0.000       
      44        1.9353         0.000       
      43        1.7478         0.000       
      42        1.4150         0.000       
      41        1.1396         0.000       
      40        1.0616         0.000       
      39        0.9398         0.000       
      38        0.5180         0.000       
      37        0.2346         0.000       
      36       -0.1373         0.000       
      35       -0.2477         0.000       
      34       -1.8286         0.000 < LUMO
      33       -4.7318         2.000 < HOMO
      32       -5.8169         2.000       
      31       -6.3967         2.000       
      30       -7.8967         2.000       
      29       -8.2516         2.000       
      28       -8.5517         2.000       
      27       -9.0949         2.000       
      26       -9.3457         2.000       
      25       -9.6062         2.000       
      24      -10.0140         2.000       
      23      -10.5147         2.000       
      22      -11.4045         2.000       
      21      -11.5036         2.000       
      20      -12.1194         2.000       
      19      -13.1226         2.000       
      18      -13.3946         2.000       
      17      -13.9419         2.000       
      16      -14.3921         2.000       
      15      -17.2605         2.000       
      14      -18.2584         2.000       
      13      -18.6931         2.000       
      12      -19.7638         2.000       
      11      -26.0121         2.000       
      10      -26.9336         2.000       
       9     -269.5977         2.000       
       8     -270.2119         2.000       
       7     -270.2482         2.000       
       6     -271.4699         2.000       
       5     -271.5417         2.000       
       4     -271.6051         2.000       
       3     -271.6330         2.000       
       2     -511.2268         2.000       
       1     -512.6195         2.000       

AMS application finished. Exiting.
NORMAL TERMINATION
     Total cpu time:      50.83
  Total system time:       0.28
 Total elapsed time:      51.43
NORMAL TERMINATION
