
 *******************************************************************************
 *                                                                             *
 *  --------------------------------                                           *
 *   Amsterdam Modeling Suite (AMS)              2026.103                      *
 *  --------------------------------                                           *
 *                                               r260501 2026-05-01 873454b5   *
 *                                                                             *
 *                                                                             *
 *                              =================                              *
 *                              |               |                              *
 *                              |     A M S     |                              *
 *                              |               |                              *
 *                              =================                              *
 *                                                                             *
 *                                                                             *
 *   Online information and documentation:  https://www.scm.com/support/       *
 *   E-mail:  support@scm.com   info@scm.com                                   *
 *                                                                             *
 *   Scientific publications using AMS results must be properly referenced     *
 *   See the User Manuals (or the web site) for recommended citations          *
 *   The terms and conditions of the End User License Agreement apply to       *
 *   the use of AMS, https://www.scm.com/license-terms/                        *
 *                                                                             *
 **********************  x86_64_linux_intel / intelmpi  ************************
 
 Licensed to: Jong-June Jeon / University of Seoul 2026-06-02 13:44:15
 SCM User ID: u30731
  
 AMS 2026.103  RunTime: Jun02-2026 22:33:58  ShM Nodes: 1  Procs: 1

 AMS jobname: c3_eda
 AMS jobid  : 1676099480

 Start   directory: /gpfs/home1/yeseo1ee/projects/eda-asm-prediction/ADF_800/adf_outputs/batch_000/dipolar_000858/
 Results directory: /gpfs/home1/yeseo1ee/projects/eda-asm-prediction/ADF_800/adf_outputs/batch_000/dipolar_000858/c3_eda.results/
 Scratch directory: /tmp/amstmp_c3_eda_kid0.1676099480/

 RNG seed: -1656110409 257823970 915378219 -633821680 -1150658531 -2102325119 -876579 -972015935



                      ************************************************************************
                      *  ADF 2026.103  RunTime: Jun02-2026 22:33:58  ShM Nodes: 1  Procs: 1  *
                      ************************************************************************
  

       ****************************
       * SINGLE POINT CALCULATION *
       ****************************

--------
Geometry
--------
Formula: C15H18N2O6
Atoms
  Index Symbol   x (angstrom)   y (angstrom)   z (angstrom)
      1      C    -2.66181000     3.25654000     0.67243000 adf.f=fA
      2      O    -2.32398000     1.87017000     0.55348000 adf.f=fA
      3      C    -1.37132000     1.55724000    -0.34253000 adf.f=fA
      4      O    -0.84859000     2.40154000    -1.05106000 adf.f=fA
      5      C    -1.05053000     0.11980000    -0.28182000 adf.f=fA
      6      C    -2.09616000    -0.74957000     0.36945000 adf.f=fA
      7      O    -2.41785000    -0.74837000     1.53859000 adf.f=fA
      8      O    -2.69377000    -1.51675000    -0.55181000 adf.f=fA
      9      C    -3.67862000    -2.44619000    -0.07512000 adf.f=fA
     10      C     0.40008000    -1.64276000    -0.94861000 adf.f=fA
     11      C    -0.18758000    -2.72202000    -0.24365000 adf.f=fA
     12      N    -0.59579000    -3.66047000     0.31722000 adf.f=fA
     13      N    -0.21343000    -0.46025000    -1.20325000 adf.f=fA
     14      C     0.19861000     0.23077000    -2.44333000 adf.f=fA
     15      H    -3.05506000     3.64396000    -0.27857000 adf.f=fA
     16      H    -3.43178000     3.31135000     1.45080000 adf.f=fA
     17      H    -1.78075000     3.84433000     0.96890000 adf.f=fA
     18      H    -4.51289000    -1.90888000     0.39749000 adf.f=fA
     19      H    -3.22593000    -3.13888000     0.64834000 adf.f=fA
     20      H    -4.02763000    -2.99332000    -0.95819000 adf.f=fA
     21      H     1.17641000    -1.93571000    -1.65677000 adf.f=fA
     22      H     0.91822000    -0.40441000    -2.96763000 adf.f=fA
     23      H     0.63155000     1.20632000    -2.23144000 adf.f=fA
     24      H    -0.69209000     0.36390000    -3.07249000 adf.f=fA
     25      C     0.47663000     0.09752000     1.54328000 adf.f=fB
     26      C     1.44945000     1.30742000     1.50498000 adf.f=fB
     27      C     1.97375000     1.53260000     0.08260000 adf.f=fB
     28      C     2.74981000     0.45689000    -0.13850000 adf.f=fB
     29      O     3.46747000     0.02700000    -1.18686000 adf.f=fB
     30      C     3.67082000     0.96514000    -2.24421000 adf.f=fB
     31      C     2.69758000    -0.38335000     1.13750000 adf.f=fB
     32      O     2.61369000     0.67942000     2.12149000 adf.f=fB
     33      C     1.28630000    -0.98874000     1.27618000 adf.f=fB
     34      H    -0.43922000     0.09180000     2.12766000 adf.f=fB
     35      H     1.12534000     2.19369000     2.06099000 adf.f=fB
     36      H     1.69794000     2.35058000    -0.57427000 adf.f=fB
     37      H     4.30975000     0.47056000    -2.98649000 adf.f=fB
     38      H     4.17408000     1.86711000    -1.85862000 adf.f=fB
     39      H     2.72064000     1.25662000    -2.71281000 adf.f=fB
     40      H     3.54362000    -1.05659000     1.31150000 adf.f=fB
     41      H     1.12198000    -2.00996000     1.60840000 adf.f=fB

Total System Charge              0.00000


----------------
ADF Engine Input
----------------
 
   Basis
     Type TZ2P
     Core None
   End
   XC
     GGA BLYP
     Dispersion GRIMME3 BJDAMP
   End
   Symmetry NOSYM
   NumericalQuality Normal
   Unrestricted No
   SCF
     Iterations 200
     Converge 1.0e-6
   End
   fragments
     fA c1_fragA_ts.results/adf.rkf
     fB c2_fragB_ts.results/adf.rkf
   end
   etsnocv
     enocv 0.05
     ekmin 0.5
   end
   print etslowdin
   Save TAPE21
 

 Title: *** (NO TITLE) ***

 *** adf ***



 ===========================
 A T T A C H E D   F I L E S
 ===========================
  



 ===============================
 M O D E L   P A R A M E T E R S
 ===============================
  
 DENSITY FUNCTIONAL POTENTIAL (scf)
    LDA:                               Exchange only                           == Not Default ==
    Gradient Corrections:              Becke88 LYP                             == Not Default ==

 SPIN  (restricted / unrestr.)
    Molecule:                          Restricted                               
    Fragments:                         Restricted                               

 OTHER ASPECTS
    Relativistic Corrections:          scalar (ZORA,MAPA)                       

    Nuclear Charge Density Model:      Point Charge Nuclei                      
    Core Treatment:                    Frozen Orbital(s)                        

    Hyperfine or Zeeman Interaction:   ---                                      

 Settings for Grimme D3 dispersion correction

      damping                        BJ
      s6                          1.000
      s8                          2.700
      a1                          0.430
      a2                          4.236

 Other (technical) parameters

      alpha                      14.000
      version                         4
 


 Fragment File(s)
 ----------------
 fA:
         file : c1_fragA_ts.results/adf.rkf
         jobid: 252468610
         title: *** adf ***
 fB:
         file : c2_fragB_ts.results/adf.rkf
         jobid: 1381883752
         title: *** adf ***



 ===============
 G E O M E T R Y  ***  3D  Molecule  ***
 ===============
  

 ATOMS
 =====                            X Y Z                    CHARGE
                                (Angstrom)             Nucl     +Core       At.Mass
                       --------------------------    ----------------       -------
    1  C              -2.6618    3.2565    0.6724      6.00      6.00       12.0000
    2  O              -2.3240    1.8702    0.5535      8.00      8.00       15.9949
    3  C              -1.3713    1.5572   -0.3425      6.00      6.00       12.0000
    4  O              -0.8486    2.4015   -1.0511      8.00      8.00       15.9949
    5  C              -1.0505    0.1198   -0.2818      6.00      6.00       12.0000
    6  C              -2.0962   -0.7496    0.3695      6.00      6.00       12.0000
    7  O              -2.4179   -0.7484    1.5386      8.00      8.00       15.9949
    8  O              -2.6938   -1.5167   -0.5518      8.00      8.00       15.9949
    9  C              -3.6786   -2.4462   -0.0751      6.00      6.00       12.0000
   10  C               0.4001   -1.6428   -0.9486      6.00      6.00       12.0000
   11  C              -0.1876   -2.7220   -0.2437      6.00      6.00       12.0000
   12  N              -0.5958   -3.6605    0.3172      7.00      7.00       14.0031
   13  N              -0.2134   -0.4602   -1.2032      7.00      7.00       14.0031
   14  C               0.1986    0.2308   -2.4433      6.00      6.00       12.0000
   15  H              -3.0551    3.6440   -0.2786      1.00      1.00        1.0078
   16  H              -3.4318    3.3113    1.4508      1.00      1.00        1.0078
   17  H              -1.7807    3.8443    0.9689      1.00      1.00        1.0078
   18  H              -4.5129   -1.9089    0.3975      1.00      1.00        1.0078
   19  H              -3.2259   -3.1389    0.6483      1.00      1.00        1.0078
   20  H              -4.0276   -2.9933   -0.9582      1.00      1.00        1.0078
   21  H               1.1764   -1.9357   -1.6568      1.00      1.00        1.0078
   22  H               0.9182   -0.4044   -2.9676      1.00      1.00        1.0078
   23  H               0.6315    1.2063   -2.2314      1.00      1.00        1.0078
   24  H              -0.6921    0.3639   -3.0725      1.00      1.00        1.0078
   25  C               0.4766    0.0975    1.5433      6.00      6.00       12.0000
   26  C               1.4494    1.3074    1.5050      6.00      6.00       12.0000
   27  C               1.9737    1.5326    0.0826      6.00      6.00       12.0000
   28  C               2.7498    0.4569   -0.1385      6.00      6.00       12.0000
   29  O               3.4675    0.0270   -1.1869      8.00      8.00       15.9949
   30  C               3.6708    0.9651   -2.2442      6.00      6.00       12.0000
   31  C               2.6976   -0.3833    1.1375      6.00      6.00       12.0000
   32  O               2.6137    0.6794    2.1215      8.00      8.00       15.9949
   33  C               1.2863   -0.9887    1.2762      6.00      6.00       12.0000
   34  H              -0.4392    0.0918    2.1277      1.00      1.00        1.0078
   35  H               1.1253    2.1937    2.0610      1.00      1.00        1.0078
   36  H               1.6979    2.3506   -0.5743      1.00      1.00        1.0078
   37  H               4.3098    0.4706   -2.9865      1.00      1.00        1.0078
   38  H               4.1741    1.8671   -1.8586      1.00      1.00        1.0078
   39  H               2.7206    1.2566   -2.7128      1.00      1.00        1.0078
   40  H               3.5436   -1.0566    1.3115      1.00      1.00        1.0078
   41  H               1.1220   -2.0100    1.6084      1.00      1.00        1.0078


 FRAGMENTS
 =========                                     Atoms in this Fragment     Cart. coord.s (Angstrom)
                                               -------------------------------------------------------
    1  fA                                                1  C           -2.6618    3.2565    0.6724
                                                         3  C           -1.3713    1.5572   -0.3425
                                                         5  C           -1.0505    0.1198   -0.2818
                                                         6  C           -2.0962   -0.7496    0.3695
                                                         9  C           -3.6786   -2.4462   -0.0751
                                                        10  C            0.4001   -1.6428   -0.9486
                                                        11  C           -0.1876   -2.7220   -0.2437
                                                        14  C            0.1986    0.2308   -2.4433
                                                         2  O           -2.3240    1.8702    0.5535
                                                         4  O           -0.8486    2.4015   -1.0511
                                                         7  O           -2.4179   -0.7484    1.5386
                                                         8  O           -2.6938   -1.5167   -0.5518
                                                        12  N           -0.5958   -3.6605    0.3172
                                                        13  N           -0.2134   -0.4602   -1.2032
                                                        15  H           -3.0551    3.6440   -0.2786
                                                        16  H           -3.4318    3.3113    1.4508
                                                        17  H           -1.7807    3.8443    0.9689
                                                        18  H           -4.5129   -1.9089    0.3975
                                                        19  H           -3.2259   -3.1389    0.6483
                                                        20  H           -4.0276   -2.9933   -0.9582
                                                        21  H            1.1764   -1.9357   -1.6568
                                                        22  H            0.9182   -0.4044   -2.9676
                                                        23  H            0.6315    1.2063   -2.2314
                                                        24  H           -0.6921    0.3639   -3.0725
    2  fB                                               25  C            0.4766    0.0975    1.5433
                                                        26  C            1.4494    1.3074    1.5050
                                                        27  C            1.9737    1.5326    0.0826
                                                        28  C            2.7498    0.4569   -0.1385
                                                        30  C            3.6708    0.9651   -2.2442
                                                        31  C            2.6976   -0.3833    1.1375
                                                        33  C            1.2863   -0.9887    1.2762
                                                        29  O            3.4675    0.0270   -1.1869
                                                        32  O            2.6137    0.6794    2.1215
                                                        34  H           -0.4392    0.0918    2.1277
                                                        35  H            1.1253    2.1937    2.0610
                                                        36  H            1.6979    2.3506   -0.5743
                                                        37  H            4.3098    0.4706   -2.9865
                                                        38  H            4.1741    1.8671   -1.8586
                                                        39  H            2.7206    1.2566   -2.7128
                                                        40  H            3.5436   -1.0566    1.3115
                                                        41  H            1.1220   -2.0100    1.6084



 =====================================
 S Y M M E T R Y ,   E L E C T R O N S
 =====================================
  
 Symmetry: NOSYM

 Irreducible Representations, including subspecies
 -------------------------------------------------
 A


 Configuration of Valence Electrons
 ==================================
 ( determined in the SCF procedure )

 Total:   170

 Net Charge: 0 (Nuclei minus Electrons)

 Aufbau principle for MO occupations will be applied through SCF cycle no.     100
 Thereafter, the program will assign electrons to MOs that are spatially
 similar to the occupied MOs in a "reference" cycle ("KeepOrbitals").
 The reference cycle is always the PREVIOUS cycle: it will evolve with
 the SCF procedure.
 ***************************************************************************************************



                                      ****************************************
                                      *  B U I L D : (Fragments, Functions)  *
                                      ****************************************
  

 The individual fragments are copies of the corresponding 'Master' fragments defined on the fragment files.
 However, they may have been rotated (and translated) with respect to the Master. The local coordinate axes
 of each fragment (which define for instance the spatial orientation in the current molecule of a fragment
 P:x orbital) are not necessarily those of the molecule.
 The local frame (if different from the molecular one) is printed to enable an interpretation of the expan-
 sion of an MO in Fragment Orbitals.



                                              ************************
                                              *  Fragment Type : fA  *
                                              ************************
  

 Fragment no.    1   (in the list of all fragments)
 -----------------
 The local coordinate frame is identical to the molecular frame.

 Check Atomic Coordinates:

                  Master (on file)          After Computed Tranformation               As specified on Input
           ----------------------------     ----------------------------     ---------------------------------
     1)    -2.66181   3.25654   0.67243     -2.66181   3.25654   0.67243       1  -2.66181   3.25654   0.67243
     2)    -1.37132   1.55724  -0.34253     -1.37132   1.55724  -0.34253       3  -1.37132   1.55724  -0.34253
     3)    -1.05053   0.11980  -0.28182     -1.05053   0.11980  -0.28182       5  -1.05053   0.11980  -0.28182
     4)    -2.09616  -0.74957   0.36945     -2.09616  -0.74957   0.36945       6  -2.09616  -0.74957   0.36945
     5)    -3.67862  -2.44619  -0.07512     -3.67862  -2.44619  -0.07512       9  -3.67862  -2.44619  -0.07512
     6)     0.40008  -1.64276  -0.94861      0.40008  -1.64276  -0.94861      10   0.40008  -1.64276  -0.94861
     7)    -0.18758  -2.72202  -0.24365     -0.18758  -2.72202  -0.24365      11  -0.18758  -2.72202  -0.24365
     8)     0.19861   0.23077  -2.44333      0.19861   0.23077  -2.44333      14   0.19861   0.23077  -2.44333
     9)    -2.32398   1.87017   0.55348     -2.32398   1.87017   0.55348       2  -2.32398   1.87017   0.55348
    10)    -0.84859   2.40154  -1.05106     -0.84859   2.40154  -1.05106       4  -0.84859   2.40154  -1.05106
    11)    -2.41785  -0.74837   1.53859     -2.41785  -0.74837   1.53859       7  -2.41785  -0.74837   1.53859
    12)    -2.69377  -1.51675  -0.55181     -2.69377  -1.51675  -0.55181       8  -2.69377  -1.51675  -0.55181
    13)    -0.59579  -3.66047   0.31722     -0.59579  -3.66047   0.31722      12  -0.59579  -3.66047   0.31722
    14)    -0.21343  -0.46025  -1.20325     -0.21343  -0.46025  -1.20325      13  -0.21343  -0.46025  -1.20325
    15)    -3.05506   3.64396  -0.27857     -3.05506   3.64396  -0.27857      15  -3.05506   3.64396  -0.27857
    16)    -3.43178   3.31135   1.45080     -3.43178   3.31135   1.45080      16  -3.43178   3.31135   1.45080
    17)    -1.78075   3.84433   0.96890     -1.78075   3.84433   0.96890      17  -1.78075   3.84433   0.96890
    18)    -4.51289  -1.90888   0.39749     -4.51289  -1.90888   0.39749      18  -4.51289  -1.90888   0.39749
    19)    -3.22593  -3.13888   0.64834     -3.22593  -3.13888   0.64834      19  -3.22593  -3.13888   0.64834
    20)    -4.02763  -2.99332  -0.95819     -4.02763  -2.99332  -0.95819      20  -4.02763  -2.99332  -0.95819
    21)     1.17641  -1.93571  -1.65677      1.17641  -1.93571  -1.65677      21   1.17641  -1.93571  -1.65677
    22)     0.91822  -0.40441  -2.96763      0.91822  -0.40441  -2.96763      22   0.91822  -0.40441  -2.96763
    23)     0.63155   1.20632  -2.23144      0.63155   1.20632  -2.23144      23   0.63155   1.20632  -2.23144
    24)    -0.69209   0.36390  -3.07249     -0.69209   0.36390  -3.07249      24  -0.69209   0.36390  -3.07249



                                              ************************
                                              *  Fragment Type : fB  *
                                              ************************
  

 Fragment no.    2   (in the list of all fragments)
 -----------------
 The local coordinate frame is identical to the molecular frame.

 Check Atomic Coordinates:

                  Master (on file)          After Computed Tranformation               As specified on Input
           ----------------------------     ----------------------------     ---------------------------------
     1)     0.47663   0.09752   1.54328      0.47663   0.09752   1.54328      25   0.47663   0.09752   1.54328
     2)     1.44945   1.30742   1.50498      1.44945   1.30742   1.50498      26   1.44945   1.30742   1.50498
     3)     1.97375   1.53260   0.08260      1.97375   1.53260   0.08260      27   1.97375   1.53260   0.08260
     4)     2.74981   0.45689  -0.13850      2.74981   0.45689  -0.13850      28   2.74981   0.45689  -0.13850
     5)     3.67082   0.96514  -2.24421      3.67082   0.96514  -2.24421      30   3.67082   0.96514  -2.24421
     6)     2.69758  -0.38335   1.13750      2.69758  -0.38335   1.13750      31   2.69758  -0.38335   1.13750
     7)     1.28630  -0.98874   1.27618      1.28630  -0.98874   1.27618      33   1.28630  -0.98874   1.27618
     8)     3.46747   0.02700  -1.18686      3.46747   0.02700  -1.18686      29   3.46747   0.02700  -1.18686
     9)     2.61369   0.67942   2.12149      2.61369   0.67942   2.12149      32   2.61369   0.67942   2.12149
    10)    -0.43922   0.09180   2.12766     -0.43922   0.09180   2.12766      34  -0.43922   0.09180   2.12766
    11)     1.12534   2.19369   2.06099      1.12534   2.19369   2.06099      35   1.12534   2.19369   2.06099
    12)     1.69794   2.35058  -0.57427      1.69794   2.35058  -0.57427      36   1.69794   2.35058  -0.57427
    13)     4.30975   0.47056  -2.98649      4.30975   0.47056  -2.98649      37   4.30975   0.47056  -2.98649
    14)     4.17408   1.86711  -1.85862      4.17408   1.86711  -1.85862      38   4.17408   1.86711  -1.85862
    15)     2.72064   1.25662  -2.71281      2.72064   1.25662  -2.71281      39   2.72064   1.25662  -2.71281
    16)     3.54362  -1.05659   1.31150      3.54362  -1.05659   1.31150      40   3.54362  -1.05659   1.31150
    17)     1.12198  -2.00996   1.60840      1.12198  -2.00996   1.60840      41   1.12198  -2.00996   1.60840



 =======
 S F O s  ***  (Symmetrized Fragment Orbitals)  ***
 =======
  
 SFOs are linear combinations of (valence) Fragment Orbitals (FOs), such that the SFOs transform as the
 irreducible representations of the (molecular) symmetry group. Each SFO is therefore characterized by
 an irrep of the molecule and by a few (or only one) generating FOs.
 The SFOs constitute a symmetry-adapted basis for the Fock matrix. The MO eigenvector coefficients in
 this basis provide a direct interpretation of the MOs in terms of Frontier Orbital Theory.

 The SFOs are combined with auxiliary Core Functions (CFs) to ensure orthogonalization on the (frozen)
 Core Orbitals (COs). The Core-orthogonalized SFOs (CSFOs) constitute the true Fock basis.

 The FOs, and hence also the (C)SFOs are combinations of the elementary basis functions (BAS). The basis
 functions that participate in the description of the SFOs depend on the irrep. The indices of the
 involved functions are printed below for each irrep.
 (The complete list of primitive basis functions is printed in another section)

 Total nr. of (C)SFOs (summation over all irreps) :   796

 NOTE: a (C)SFO that is defined as a combination of more than one FO is usually NOT normalized.



                                       === A ===
 Nr. of SFOs :  796
 Cartesian basis functions that participate in this irrep (total number =   906) :
      1     2     3     4     5     6     9    12     7    10
     13     8    11    14    15    16    17    18    19    20
     21    22    23    24    25    26    27    28    29    30
     31    32    33    34    35    36    39    42    37    40
     43    38    41    44    45    46    47    48    49    50
     51    52    53    54    55    56    57    58    59    60
     61    62    63    64    65    66    69    72    67    70
     73    68    71    74    75    76    77    78    79    80
     81    82    83    84    85    86    87    88    89    90
     91    92    93    94    95    96    99   102    97   100
    103    98   101   104   105   106   107   108   109   110
    111   112   113   114   115   116   117   118   119   120
    121   122   123   124   125   126   129   132   127   130
    133   128   131   134   135   136   137   138   139   140
    141   142   143   144   145   146   147   148   149   150
    151   152   153   154   155   156   159   162   157   160
    163   158   161   164   165   166   167   168   169   170
    171   172   173   174   175   176   177   178   179   180
    181   182   183   184   185   186   189   192   187   190
    193   188   191   194   195   196   197   198   199   200
    201   202   203   204   205   206   207   208   209   210
    211   212   213   214   215   216   219   222   217   220
    223   218   221   224   225   226   227   228   229   230
    231   232   233   234   235   236   237   238   239   240
    241   242   243   244   245   246   249   252   247   250
    253   248   251   254   255   256   257   258   259   260
    261   262   263   264   265   266   267   268   269   270
    271   272   273   274   275   276   279   282   277   280
    283   278   281   284   285   286   287   288   289   290
    291   292   293   294   295   296   297   298   299   300
    301   302   303   304   305   306   309   312   307   310
    313   308   311   314   315   316   317   318   319   320
    321   322   323   324   325   326   327   328   329   330
    331   332   333   334   335   336   339   342   337   340
    343   338   341   344   345   346   347   348   349   350
    351   352   353   354   355   356   357   358   359   360
    361   362   363   364   365   366   369   372   367   370
    373   368   371   374   375   376   377   378   379   380
    381   382   383   384   385   386   387   388   389   390
    391   392   393   394   395   396   399   402   397   400
    403   398   401   404   405   406   407   408   409   410
    411   412   413   414   415   416   417   418   419   420
    421   422   423   424   425   426   427   428   429   430
    431   432   433   434   435   436   437   438   439   440
    441   442   443   444   445   446   447   448   449   450
    451   452   453   454   455   456   457   458   459   460
    461   462   463   464   465   466   467   468   469   470
    471   472   473   474   475   476   477   478   479   480
    481   482   483   484   485   486   487   488   489   490
    491   492   493   494   495   496   497   498   499   500
    501   502   503   504   505   506   507   508   509   510
    511   512   513   514   515   516   517   518   519   520
    521   522   523   524   525   526   527   528   529   530
    531   532   533   534   535   536   537   538   539   540
    541   542   543   544   545   546   549   552   547   550
    553   548   551   554   555   556   557   558   559   560
    561   562   563   564   565   566   567   568   569   570
    571   572   573   574   575   576   579   582   577   580
    583   578   581   584   585   586   587   588   589   590
    591   592   593   594   595   596   597   598   599   600
    601   602   603   604   605   606   609   612   607   610
    613   608   611   614   615   616   617   618   619   620
    621   622   623   624   625   626   627   628   629   630
    631   632   633   634   635   636   639   642   637   640
    643   638   641   644   645   646   647   648   649   650
    651   652   653   654   655   656   657   658   659   660
    661   662   663   664   665   666   669   672   667   670
    673   668   671   674   675   676   677   678   679   680
    681   682   683   684   685   686   687   688   689   690
    691   692   693   694   695   696   699   702   697   700
    703   698   701   704   705   706   707   708   709   710
    711   712   713   714   715   716   717   718   719   720
    721   722   723   724   725   726   729   732   727   730
    733   728   731   734   735   736   737   738   739   740
    741   742   743   744   745   746   747   748   749   750
    751   752   753   754   755   756   759   762   757   760
    763   758   761   764   765   766   767   768   769   770
    771   772   773   774   775   776   777   778   779   780
    781   782   783   784   785   786   789   792   787   790
    793   788   791   794   795   796   797   798   799   800
    801   802   803   804   805   806   807   808   809   810
    811   812   813   814   815   816   817   818   819   820
    821   822   823   824   825   826   827   828   829   830
    831   832   833   834   835   836   837   838   839   840
    841   842   843   844   845   846   847   848   849   850
    851   852   853   854   855   856   857   858   859   860
    861   862   863   864   865   866   867   868   869   870
    871   872   873   874   875   876   877   878   879   880
    881   882   883   884   885   886   887   888   889   890
    891   892   893   894   895   896   897   898   899   900
    901   902   903   904   905   906

    SFO  (index         Fragment          Generating    Expansion in Fragment Orbitals
  indx  incl.CFs)   Occup   Orb.Energy   FragmentType  Coeff.   Orbital     on Fragment
 --------------------------------------------------------------------------------------
     1       1      2.000     -18.846 au  fA            1.00      1 A               1
                        (    -512.826 eV)
     2       2      2.000     -18.841 au  fA            1.00      2 A               1
                        (    -512.689 eV)
     3       3      2.000     -18.783 au  fA            1.00      3 A               1
                        (    -511.119 eV)
     4       4      2.000     -18.780 au  fA            1.00      4 A               1
                        (    -511.033 eV)
     5       5      2.000     -14.158 au  fA            1.00      5 A               1
                        (    -385.261 eV)
     6       6      2.000     -14.032 au  fA            1.00      6 A               1
                        (    -381.840 eV)
     7       7      2.000     -10.054 au  fA            1.00      7 A               1
                        (    -273.570 eV)
     8       8      2.000     -10.053 au  fA            1.00      8 A               1
                        (    -273.551 eV)
     9       9      2.000     -10.008 au  fA            1.00      9 A               1
                        (    -272.345 eV)
    10      10      2.000      -9.992 au  fA            1.00     10 A               1
                        (    -271.890 eV)
    11      11      2.000      -9.988 au  fA            1.00     11 A               1
                        (    -271.793 eV)
    12      12      2.000      -9.978 au  fA            1.00     12 A               1
                        (    -271.506 eV)
    13      13      2.000      -9.974 au  fA            1.00     13 A               1
                        (    -271.399 eV)
    14      14      2.000      -9.973 au  fA            1.00     14 A               1
                        (    -271.389 eV)
    15      15      2.000      -1.026 au  fA            1.00     15 A               1
                        (     -27.915 eV)
    16      16      2.000      -1.018 au  fA            1.00     16 A               1
                        (     -27.694 eV)
    17      17      2.000      -0.951 au  fA            1.00     17 A               1
                        (     -25.870 eV)
    18      18      2.000      -0.931 au  fA            1.00     18 A               1
                        (     -25.344 eV)
    19      19      2.000      -0.929 au  fA            1.00     19 A               1
                        (     -25.269 eV)
    20      20      2.000      -0.835 au  fA            1.00     20 A               1
                        (     -22.710 eV)
    21      21      2.000      -0.738 au  fA            1.00     21 A               1
                        (     -20.077 eV)
    22      22      2.000      -0.715 au  fA            1.00     22 A               1
                        (     -19.458 eV)
    23      23      2.000      -0.672 au  fA            1.00     23 A               1
                        (     -18.298 eV)
    24      24      2.000      -0.663 au  fA            1.00     24 A               1
                        (     -18.049 eV)
    25      25      2.000      -0.608 au  fA            1.00     25 A               1
                        (     -16.542 eV)
    26      26      2.000      -0.553 au  fA            1.00     26 A               1
                        (     -15.059 eV)
    27      27      2.000      -0.543 au  fA            1.00     27 A               1
                        (     -14.767 eV)
    28      28      2.000      -0.499 au  fA            1.00     28 A               1
                        (     -13.586 eV)
    29      29      2.000      -0.495 au  fA            1.00     29 A               1
                        (     -13.465 eV)
    30      30      2.000      -0.473 au  fA            1.00     30 A               1
                        (     -12.877 eV)
    31      31      2.000      -0.452 au  fA            1.00     31 A               1
                        (     -12.295 eV)
    32      32      2.000      -0.440 au  fA            1.00     32 A               1
                        (     -11.983 eV)
    33      33      2.000      -0.439 au  fA            1.00     33 A               1
                        (     -11.937 eV)
    34      34      2.000      -0.431 au  fA            1.00     34 A               1
                        (     -11.734 eV)
    35      35      2.000      -0.420 au  fA            1.00     35 A               1
                        (     -11.427 eV)
    36      36      2.000      -0.419 au  fA            1.00     36 A               1
                        (     -11.407 eV)
    37      37      2.000      -0.399 au  fA            1.00     37 A               1
                        (     -10.844 eV)
    38      38      2.000      -0.386 au  fA            1.00     38 A               1
                        (     -10.492 eV)
    39      39      2.000      -0.373 au  fA            1.00     39 A               1
                        (     -10.149 eV)
    40      40      2.000      -0.367 au  fA            1.00     40 A               1
                        (      -9.999 eV)
    41      41      2.000      -0.357 au  fA            1.00     41 A               1
                        (      -9.709 eV)
    42      42      2.000      -0.351 au  fA            1.00     42 A               1
                        (      -9.538 eV)
    43      43      2.000      -0.327 au  fA            1.00     43 A               1
                        (      -8.908 eV)
    44      44      2.000      -0.321 au  fA            1.00     44 A               1
                        (      -8.736 eV)
    45      45      2.000      -0.316 au  fA            1.00     45 A               1
                        (      -8.610 eV)
    46      46      2.000      -0.313 au  fA            1.00     46 A               1
                        (      -8.513 eV)
    47      47      2.000      -0.310 au  fA            1.00     47 A               1
                        (      -8.426 eV)
    48      48      2.000      -0.270 au  fA            1.00     48 A               1
                        (      -7.354 eV)
    49      49      2.000      -0.268 au  fA            1.00     49 A               1
                        (      -7.286 eV)
    50      50      2.000      -0.243 au  fA            1.00     50 A               1
                        (      -6.615 eV)
    51      51      2.000      -0.234 au  fA            1.00     51 A               1
                        (      -6.356 eV)
    52      52      2.000      -0.202 au  fA            1.00     52 A               1
                        (      -5.497 eV)
    53      53       --        -0.143 au  fA            1.00     53 A               1
                        (      -3.886 eV)
    54      54       --        -0.055 au  fA            1.00     54 A               1
                        (      -1.508 eV)
    55      55       --        -0.030 au  fA            1.00     55 A               1
                        (      -0.810 eV)
    56      56       --        -0.017 au  fA            1.00     56 A               1
                        (      -0.462 eV)
    57      57       --        -0.003 au  fA            1.00     57 A               1
                        (      -0.076 eV)
    58      58       --         0.001 au  fA            1.00     58 A               1
                        (       0.036 eV)
    59      59       --         0.012 au  fA            1.00     59 A               1
                        (       0.321 eV)
    60      60       --         0.016 au  fA            1.00     60 A               1
                        (       0.425 eV)
    61      61       --         0.025 au  fA            1.00     61 A               1
                        (       0.679 eV)
    62      62       --         0.034 au  fA            1.00     62 A               1
                        (       0.938 eV)
    63      63       --         0.041 au  fA            1.00     63 A               1
                        (       1.125 eV)
    64      64       --         0.047 au  fA            1.00     64 A               1
                        (       1.290 eV)
    65      65       --         0.050 au  fA            1.00     65 A               1
                        (       1.371 eV)
    66      66       --         0.055 au  fA            1.00     66 A               1
                        (       1.494 eV)
    67      67       --         0.058 au  fA            1.00     67 A               1
                        (       1.579 eV)
    68      68       --         0.063 au  fA            1.00     68 A               1
                        (       1.724 eV)
    69      69       --         0.070 au  fA            1.00     69 A               1
                        (       1.910 eV)
    70      70       --         0.082 au  fA            1.00     70 A               1
                        (       2.232 eV)
    71      71       --         0.100 au  fA            1.00     71 A               1
                        (       2.726 eV)
    72      72       --         0.123 au  fA            1.00     72 A               1
                        (       3.351 eV)
    73      73       --         0.138 au  fA            1.00     73 A               1
                        (       3.752 eV)
    74      74       --         0.140 au  fA            1.00     74 A               1
                        (       3.821 eV)
    75      75       --         0.149 au  fA            1.00     75 A               1
                        (       4.055 eV)
    76      76       --         0.156 au  fA            1.00     76 A               1
                        (       4.244 eV)
    77      77       --         0.163 au  fA            1.00     77 A               1
                        (       4.446 eV)
    78      78       --         0.177 au  fA            1.00     78 A               1
                        (       4.814 eV)
    79      79       --         0.181 au  fA            1.00     79 A               1
                        (       4.918 eV)
    80      80       --         0.187 au  fA            1.00     80 A               1
                        (       5.097 eV)
    81      81       --         0.194 au  fA            1.00     81 A               1
                        (       5.290 eV)
    82      82       --         0.200 au  fA            1.00     82 A               1
                        (       5.449 eV)
    83      83       --         0.205 au  fA            1.00     83 A               1
                        (       5.588 eV)
    84      84       --         0.216 au  fA            1.00     84 A               1
                        (       5.877 eV)
    85      85       --         0.220 au  fA            1.00     85 A               1
                        (       5.993 eV)
    86      86       --         0.237 au  fA            1.00     86 A               1
                        (       6.449 eV)
    87      87       --         0.254 au  fA            1.00     87 A               1
                        (       6.902 eV)
    88      88       --         0.256 au  fA            1.00     88 A               1
                        (       6.977 eV)
    89      89       --         0.263 au  fA            1.00     89 A               1
                        (       7.154 eV)
    90      90       --         0.276 au  fA            1.00     90 A               1
                        (       7.503 eV)
    91      91       --         0.280 au  fA            1.00     91 A               1
                        (       7.627 eV)
    92      92       --         0.283 au  fA            1.00     92 A               1
                        (       7.702 eV)
    93      93       --         0.294 au  fA            1.00     93 A               1
                        (       7.997 eV)
    94      94       --         0.301 au  fA            1.00     94 A               1
                        (       8.192 eV)
    95      95       --         0.309 au  fA            1.00     95 A               1
                        (       8.398 eV)
    96      96       --         0.324 au  fA            1.00     96 A               1
                        (       8.817 eV)
    97      97       --         0.331 au  fA            1.00     97 A               1
                        (       8.994 eV)
    98      98       --         0.335 au  fA            1.00     98 A               1
                        (       9.121 eV)
    99      99       --         0.341 au  fA            1.00     99 A               1
                        (       9.280 eV)
   100     100       --         0.353 au  fA            1.00    100 A               1
                        (       9.594 eV)
   101     101       --         0.359 au  fA            1.00    101 A               1
                        (       9.779 eV)
   102     102       --         0.364 au  fA            1.00    102 A               1
                        (       9.914 eV)
   103     103       --         0.369 au  fA            1.00    103 A               1
                        (      10.032 eV)
   104     104       --         0.377 au  fA            1.00    104 A               1
                        (      10.265 eV)
   105     105       --         0.382 au  fA            1.00    105 A               1
                        (      10.394 eV)
   106     106       --         0.397 au  fA            1.00    106 A               1
                        (      10.796 eV)
   107     107       --         0.402 au  fA            1.00    107 A               1
                        (      10.939 eV)
   108     108       --         0.409 au  fA            1.00    108 A               1
                        (      11.125 eV)
   109     109       --         0.418 au  fA            1.00    109 A               1
                        (      11.384 eV)
   110     110       --         0.429 au  fA            1.00    110 A               1
                        (      11.662 eV)
   111     111       --         0.448 au  fA            1.00    111 A               1
                        (      12.203 eV)
   112     112       --         0.461 au  fA            1.00    112 A               1
                        (      12.554 eV)
   113     113       --         0.471 au  fA            1.00    113 A               1
                        (      12.813 eV)
   114     114       --         0.484 au  fA            1.00    114 A               1
                        (      13.159 eV)
   115     115       --         0.492 au  fA            1.00    115 A               1
                        (      13.402 eV)
   116     116       --         0.502 au  fA            1.00    116 A               1
                        (      13.653 eV)
   117     117       --         0.511 au  fA            1.00    117 A               1
                        (      13.900 eV)
   118     118       --         0.548 au  fA            1.00    118 A               1
                        (      14.901 eV)
   119     119       --         0.554 au  fA            1.00    119 A               1
                        (      15.065 eV)
   120     120       --         0.571 au  fA            1.00    120 A               1
                        (      15.525 eV)
   121     121       --         0.573 au  fA            1.00    121 A               1
                        (      15.604 eV)
   122     122       --         0.580 au  fA            1.00    122 A               1
                        (      15.784 eV)
   123     123       --         0.622 au  fA            1.00    123 A               1
                        (      16.937 eV)
   124     124       --         0.632 au  fA            1.00    124 A               1
                        (      17.185 eV)
   125     125       --         0.639 au  fA            1.00    125 A               1
                        (      17.385 eV)
   126     126       --         0.655 au  fA            1.00    126 A               1
                        (      17.816 eV)
   127     127       --         0.683 au  fA            1.00    127 A               1
                        (      18.580 eV)
   128     128       --         0.696 au  fA            1.00    128 A               1
                        (      18.934 eV)
   129     129       --         0.706 au  fA            1.00    129 A               1
                        (      19.203 eV)
   130     130       --         0.725 au  fA            1.00    130 A               1
                        (      19.738 eV)
   131     131       --         0.739 au  fA            1.00    131 A               1
                        (      20.110 eV)
   132     132       --         0.754 au  fA            1.00    132 A               1
                        (      20.518 eV)
   133     133       --         0.781 au  fA            1.00    133 A               1
                        (      21.247 eV)
   134     134       --         0.786 au  fA            1.00    134 A               1
                        (      21.398 eV)
   135     135       --         0.816 au  fA            1.00    135 A               1
                        (      22.198 eV)
   136     136       --         0.819 au  fA            1.00    136 A               1
                        (      22.285 eV)
   137     137       --         0.831 au  fA            1.00    137 A               1
                        (      22.606 eV)
   138     138       --         0.843 au  fA            1.00    138 A               1
                        (      22.948 eV)
   139     139       --         0.869 au  fA            1.00    139 A               1
                        (      23.639 eV)
   140     140       --         0.878 au  fA            1.00    140 A               1
                        (      23.903 eV)
   141     141       --         0.903 au  fA            1.00    141 A               1
                        (      24.584 eV)
   142     142       --         0.915 au  fA            1.00    142 A               1
                        (      24.901 eV)
   143     143       --         0.928 au  fA            1.00    143 A               1
                        (      25.263 eV)
   144     144       --         0.938 au  fA            1.00    144 A               1
                        (      25.519 eV)
   145     145       --         0.942 au  fA            1.00    145 A               1
                        (      25.641 eV)
   146     146       --         0.950 au  fA            1.00    146 A               1
                        (      25.855 eV)
   147     147       --         0.956 au  fA            1.00    147 A               1
                        (      26.003 eV)
   148     148       --         0.963 au  fA            1.00    148 A               1
                        (      26.217 eV)
   149     149       --         0.971 au  fA            1.00    149 A               1
                        (      26.434 eV)
   150     150       --         0.975 au  fA            1.00    150 A               1
                        (      26.527 eV)
   151     151       --         0.993 au  fA            1.00    151 A               1
                        (      27.013 eV)
   152     152       --         1.011 au  fA            1.00    152 A               1
                        (      27.518 eV)
   153     153       --         1.026 au  fA            1.00    153 A               1
                        (      27.907 eV)
   154     154       --         1.048 au  fA            1.00    154 A               1
                        (      28.514 eV)
   155     155       --         1.060 au  fA            1.00    155 A               1
                        (      28.833 eV)
   156     156       --         1.064 au  fA            1.00    156 A               1
                        (      28.956 eV)
   157     157       --         1.068 au  fA            1.00    157 A               1
                        (      29.057 eV)
   158     158       --         1.087 au  fA            1.00    158 A               1
                        (      29.579 eV)
   159     159       --         1.094 au  fA            1.00    159 A               1
                        (      29.779 eV)
   160     160       --         1.108 au  fA            1.00    160 A               1
                        (      30.159 eV)
   161     161       --         1.116 au  fA            1.00    161 A               1
                        (      30.376 eV)
   162     162       --         1.122 au  fA            1.00    162 A               1
                        (      30.537 eV)
   163     163       --         1.134 au  fA            1.00    163 A               1
                        (      30.865 eV)
   164     164       --         1.135 au  fA            1.00    164 A               1
                        (      30.892 eV)
   165     165       --         1.153 au  fA            1.00    165 A               1
                        (      31.369 eV)
   166     166       --         1.182 au  fA            1.00    166 A               1
                        (      32.162 eV)
   167     167       --         1.193 au  fA            1.00    167 A               1
                        (      32.459 eV)
   168     168       --         1.216 au  fA            1.00    168 A               1
                        (      33.089 eV)
   169     169       --         1.227 au  fA            1.00    169 A               1
                        (      33.397 eV)
   170     170       --         1.231 au  fA            1.00    170 A               1
                        (      33.504 eV)
   171     171       --         1.254 au  fA            1.00    171 A               1
                        (      34.114 eV)
   172     172       --         1.269 au  fA            1.00    172 A               1
                        (      34.522 eV)
   173     173       --         1.286 au  fA            1.00    173 A               1
                        (      35.004 eV)
   174     174       --         1.306 au  fA            1.00    174 A               1
                        (      35.542 eV)
   175     175       --         1.332 au  fA            1.00    175 A               1
                        (      36.257 eV)
   176     176       --         1.336 au  fA            1.00    176 A               1
                        (      36.355 eV)
   177     177       --         1.344 au  fA            1.00    177 A               1
                        (      36.573 eV)
   178     178       --         1.350 au  fA            1.00    178 A               1
                        (      36.741 eV)
   179     179       --         1.367 au  fA            1.00    179 A               1
                        (      37.196 eV)
   180     180       --         1.383 au  fA            1.00    180 A               1
                        (      37.640 eV)
   181     181       --         1.400 au  fA            1.00    181 A               1
                        (      38.107 eV)
   182     182       --         1.411 au  fA            1.00    182 A               1
                        (      38.392 eV)
   183     183       --         1.417 au  fA            1.00    183 A               1
                        (      38.567 eV)
   184     184       --         1.426 au  fA            1.00    184 A               1
                        (      38.800 eV)
   185     185       --         1.431 au  fA            1.00    185 A               1
                        (      38.953 eV)
   186     186       --         1.468 au  fA            1.00    186 A               1
                        (      39.953 eV)
   187     187       --         1.490 au  fA            1.00    187 A               1
                        (      40.542 eV)
   188     188       --         1.497 au  fA            1.00    188 A               1
                        (      40.728 eV)
   189     189       --         1.510 au  fA            1.00    189 A               1
                        (      41.084 eV)
   190     190       --         1.531 au  fA            1.00    190 A               1
                        (      41.661 eV)
   191     191       --         1.556 au  fA            1.00    191 A               1
                        (      42.351 eV)
   192     192       --         1.560 au  fA            1.00    192 A               1
                        (      42.462 eV)
   193     193       --         1.582 au  fA            1.00    193 A               1
                        (      43.047 eV)
   194     194       --         1.588 au  fA            1.00    194 A               1
                        (      43.199 eV)
   195     195       --         1.608 au  fA            1.00    195 A               1
                        (      43.744 eV)
   196     196       --         1.626 au  fA            1.00    196 A               1
                        (      44.246 eV)
   197     197       --         1.639 au  fA            1.00    197 A               1
                        (      44.605 eV)
   198     198       --         1.653 au  fA            1.00    198 A               1
                        (      44.974 eV)
   199     199       --         1.672 au  fA            1.00    199 A               1
                        (      45.508 eV)
   200     200       --         1.685 au  fA            1.00    200 A               1
                        (      45.845 eV)
   201     201       --         1.709 au  fA            1.00    201 A               1
                        (      46.498 eV)
   202     202       --         1.725 au  fA            1.00    202 A               1
                        (      46.945 eV)
   203     203       --         1.751 au  fA            1.00    203 A               1
                        (      47.658 eV)
   204     204       --         1.769 au  fA            1.00    204 A               1
                        (      48.132 eV)
   205     205       --         1.777 au  fA            1.00    205 A               1
                        (      48.344 eV)
   206     206       --         1.784 au  fA            1.00    206 A               1
                        (      48.540 eV)
   207     207       --         1.795 au  fA            1.00    207 A               1
                        (      48.843 eV)
   208     208       --         1.805 au  fA            1.00    208 A               1
                        (      49.105 eV)
   209     209       --         1.840 au  fA            1.00    209 A               1
                        (      50.077 eV)
   210     210       --         1.845 au  fA            1.00    210 A               1
                        (      50.212 eV)
   211     211       --         1.853 au  fA            1.00    211 A               1
                        (      50.430 eV)
   212     212       --         1.876 au  fA            1.00    212 A               1
                        (      51.058 eV)
   213     213       --         1.897 au  fA            1.00    213 A               1
                        (      51.619 eV)
   214     214       --         1.930 au  fA            1.00    214 A               1
                        (      52.512 eV)
   215     215       --         1.936 au  fA            1.00    215 A               1
                        (      52.692 eV)
   216     216       --         1.957 au  fA            1.00    216 A               1
                        (      53.266 eV)
   217     217       --         1.974 au  fA            1.00    217 A               1
                        (      53.707 eV)
   218     218       --         1.997 au  fA            1.00    218 A               1
                        (      54.347 eV)
   219     219       --         2.023 au  fA            1.00    219 A               1
                        (      55.036 eV)
   220     220       --         2.028 au  fA            1.00    220 A               1
                        (      55.182 eV)
   221     221       --         2.046 au  fA            1.00    221 A               1
                        (      55.670 eV)
   222     222       --         2.048 au  fA            1.00    222 A               1
                        (      55.716 eV)
   223     223       --         2.076 au  fA            1.00    223 A               1
                        (      56.498 eV)
   224     224       --         2.087 au  fA            1.00    224 A               1
                        (      56.795 eV)
   225     225       --         2.105 au  fA            1.00    225 A               1
                        (      57.270 eV)
   226     226       --         2.115 au  fA            1.00    226 A               1
                        (      57.542 eV)
   227     227       --         2.137 au  fA            1.00    227 A               1
                        (      58.144 eV)
   228     228       --         2.170 au  fA            1.00    228 A               1
                        (      59.060 eV)
   229     229       --         2.174 au  fA            1.00    229 A               1
                        (      59.167 eV)
   230     230       --         2.203 au  fA            1.00    230 A               1
                        (      59.947 eV)
   231     231       --         2.213 au  fA            1.00    231 A               1
                        (      60.217 eV)
   232     232       --         2.246 au  fA            1.00    232 A               1
                        (      61.128 eV)
   233     233       --         2.258 au  fA            1.00    233 A               1
                        (      61.449 eV)
   234     234       --         2.276 au  fA            1.00    234 A               1
                        (      61.928 eV)
   235     235       --         2.286 au  fA            1.00    235 A               1
                        (      62.208 eV)
   236     236       --         2.322 au  fA            1.00    236 A               1
                        (      63.192 eV)
   237     237       --         2.348 au  fA            1.00    237 A               1
                        (      63.887 eV)
   238     238       --         2.371 au  fA            1.00    238 A               1
                        (      64.521 eV)
   239     239       --         2.401 au  fA            1.00    239 A               1
                        (      65.347 eV)
   240     240       --         2.413 au  fA            1.00    240 A               1
                        (      65.667 eV)
   241     241       --         2.442 au  fA            1.00    241 A               1
                        (      66.458 eV)
   242     242       --         2.448 au  fA            1.00    242 A               1
                        (      66.620 eV)
   243     243       --         2.466 au  fA            1.00    243 A               1
                        (      67.109 eV)
   244     244       --         2.501 au  fA            1.00    244 A               1
                        (      68.066 eV)
   245     245       --         2.513 au  fA            1.00    245 A               1
                        (      68.387 eV)
   246     246       --         2.526 au  fA            1.00    246 A               1
                        (      68.744 eV)
   247     247       --         2.577 au  fA            1.00    247 A               1
                        (      70.115 eV)
   248     248       --         2.615 au  fA            1.00    248 A               1
                        (      71.160 eV)
   249     249       --         2.657 au  fA            1.00    249 A               1
                        (      72.289 eV)
   250     250       --         2.691 au  fA            1.00    250 A               1
                        (      73.228 eV)
   251     251       --         2.705 au  fA            1.00    251 A               1
                        (      73.616 eV)
   252     252       --         2.714 au  fA            1.00    252 A               1
                        (      73.864 eV)
   253     253       --         2.720 au  fA            1.00    253 A               1
                        (      74.025 eV)
   254     254       --         2.756 au  fA            1.00    254 A               1
                        (      75.002 eV)
   255     255       --         2.773 au  fA            1.00    255 A               1
                        (      75.444 eV)
   256     256       --         2.773 au  fA            1.00    256 A               1
                        (      75.455 eV)
   257     257       --         2.779 au  fA            1.00    257 A               1
                        (      75.630 eV)
   258     258       --         2.789 au  fA            1.00    258 A               1
                        (      75.889 eV)
   259     259       --         2.795 au  fA            1.00    259 A               1
                        (      76.067 eV)
   260     260       --         2.808 au  fA            1.00    260 A               1
                        (      76.410 eV)
   261     261       --         2.814 au  fA            1.00    261 A               1
                        (      76.576 eV)
   262     262       --         2.815 au  fA            1.00    262 A               1
                        (      76.604 eV)
   263     263       --         2.838 au  fA            1.00    263 A               1
                        (      77.228 eV)
   264     264       --         2.842 au  fA            1.00    264 A               1
                        (      77.338 eV)
   265     265       --         2.861 au  fA            1.00    265 A               1
                        (      77.849 eV)
   266     266       --         2.880 au  fA            1.00    266 A               1
                        (      78.370 eV)
   267     267       --         2.892 au  fA            1.00    267 A               1
                        (      78.698 eV)
   268     268       --         2.914 au  fA            1.00    268 A               1
                        (      79.303 eV)
   269     269       --         2.937 au  fA            1.00    269 A               1
                        (      79.918 eV)
   270     270       --         2.948 au  fA            1.00    270 A               1
                        (      80.229 eV)
   271     271       --         2.965 au  fA            1.00    271 A               1
                        (      80.672 eV)
   272     272       --         2.966 au  fA            1.00    272 A               1
                        (      80.704 eV)
   273     273       --         2.982 au  fA            1.00    273 A               1
                        (      81.154 eV)
   274     274       --         2.989 au  fA            1.00    274 A               1
                        (      81.330 eV)
   275     275       --         3.041 au  fA            1.00    275 A               1
                        (      82.759 eV)
   276     276       --         3.053 au  fA            1.00    276 A               1
                        (      83.082 eV)
   277     277       --         3.086 au  fA            1.00    277 A               1
                        (      83.988 eV)
   278     278       --         3.132 au  fA            1.00    278 A               1
                        (      85.227 eV)
   279     279       --         3.145 au  fA            1.00    279 A               1
                        (      85.573 eV)
   280     280       --         3.158 au  fA            1.00    280 A               1
                        (      85.932 eV)
   281     281       --         3.184 au  fA            1.00    281 A               1
                        (      86.636 eV)
   282     282       --         3.221 au  fA            1.00    282 A               1
                        (      87.635 eV)
   283     283       --         3.248 au  fA            1.00    283 A               1
                        (      88.385 eV)
   284     284       --         3.251 au  fA            1.00    284 A               1
                        (      88.472 eV)
   285     285       --         3.288 au  fA            1.00    285 A               1
                        (      89.463 eV)
   286     286       --         3.295 au  fA            1.00    286 A               1
                        (      89.673 eV)
   287     287       --         3.313 au  fA            1.00    287 A               1
                        (      90.156 eV)
   288     288       --         3.355 au  fA            1.00    288 A               1
                        (      91.301 eV)
   289     289       --         3.366 au  fA            1.00    289 A               1
                        (      91.603 eV)
   290     290       --         3.369 au  fA            1.00    290 A               1
                        (      91.682 eV)
   291     291       --         3.378 au  fA            1.00    291 A               1
                        (      91.922 eV)
   292     292       --         3.401 au  fA            1.00    292 A               1
                        (      92.556 eV)
   293     293       --         3.402 au  fA            1.00    293 A               1
                        (      92.578 eV)
   294     294       --         3.414 au  fA            1.00    294 A               1
                        (      92.900 eV)
   295     295       --         3.419 au  fA            1.00    295 A               1
                        (      93.040 eV)
   296     296       --         3.429 au  fA            1.00    296 A               1
                        (      93.296 eV)
   297     297       --         3.442 au  fA            1.00    297 A               1
                        (      93.655 eV)
   298     298       --         3.453 au  fA            1.00    298 A               1
                        (      93.948 eV)
   299     299       --         3.462 au  fA            1.00    299 A               1
                        (      94.195 eV)
   300     300       --         3.498 au  fA            1.00    300 A               1
                        (      95.182 eV)
   301     301       --         3.515 au  fA            1.00    301 A               1
                        (      95.639 eV)
   302     302       --         3.526 au  fA            1.00    302 A               1
                        (      95.946 eV)
   303     303       --         3.532 au  fA            1.00    303 A               1
                        (      96.101 eV)
   304     304       --         3.544 au  fA            1.00    304 A               1
                        (      96.435 eV)
   305     305       --         3.570 au  fA            1.00    305 A               1
                        (      97.131 eV)
   306     306       --         3.604 au  fA            1.00    306 A               1
                        (      98.075 eV)
   307     307       --         3.617 au  fA            1.00    307 A               1
                        (      98.421 eV)
   308     308       --         3.630 au  fA            1.00    308 A               1
                        (      98.779 eV)
   309     309       --         3.631 au  fA            1.00    309 A               1
                        (      98.806 eV)
   310     310       --         3.645 au  fA            1.00    310 A               1
                        (      99.191 eV)
   311     311       --         3.655 au  fA            1.00    311 A               1
                        (      99.456 eV)
   312     312       --         3.683 au  fA            1.00    312 A               1
                        (     100.223 eV)
   313     313       --         3.696 au  fA            1.00    313 A               1
                        (     100.586 eV)
   314     314       --         3.725 au  fA            1.00    314 A               1
                        (     101.353 eV)
   315     315       --         3.734 au  fA            1.00    315 A               1
                        (     101.614 eV)
   316     316       --         3.768 au  fA            1.00    316 A               1
                        (     102.543 eV)
   317     317       --         3.771 au  fA            1.00    317 A               1
                        (     102.610 eV)
   318     318       --         3.778 au  fA            1.00    318 A               1
                        (     102.813 eV)
   319     319       --         3.787 au  fA            1.00    319 A               1
                        (     103.046 eV)
   320     320       --         3.801 au  fA            1.00    320 A               1
                        (     103.420 eV)
   321     321       --         3.829 au  fA            1.00    321 A               1
                        (     104.185 eV)
   322     322       --         3.839 au  fA            1.00    322 A               1
                        (     104.452 eV)
   323     323       --         3.853 au  fA            1.00    323 A               1
                        (     104.854 eV)
   324     324       --         3.876 au  fA            1.00    324 A               1
                        (     105.471 eV)
   325     325       --         3.918 au  fA            1.00    325 A               1
                        (     106.613 eV)
   326     326       --         3.960 au  fA            1.00    326 A               1
                        (     107.757 eV)
   327     327       --         3.979 au  fA            1.00    327 A               1
                        (     108.282 eV)
   328     328       --         3.998 au  fA            1.00    328 A               1
                        (     108.791 eV)
   329     329       --         4.010 au  fA            1.00    329 A               1
                        (     109.117 eV)
   330     330       --         4.049 au  fA            1.00    330 A               1
                        (     110.185 eV)
   331     331       --         4.066 au  fA            1.00    331 A               1
                        (     110.649 eV)
   332     332       --         4.073 au  fA            1.00    332 A               1
                        (     110.841 eV)
   333     333       --         4.084 au  fA            1.00    333 A               1
                        (     111.118 eV)
   334     334       --         4.114 au  fA            1.00    334 A               1
                        (     111.950 eV)
   335     335       --         4.137 au  fA            1.00    335 A               1
                        (     112.564 eV)
   336     336       --         4.168 au  fA            1.00    336 A               1
                        (     113.429 eV)
   337     337       --         4.178 au  fA            1.00    337 A               1
                        (     113.698 eV)
   338     338       --         4.208 au  fA            1.00    338 A               1
                        (     114.518 eV)
   339     339       --         4.238 au  fA            1.00    339 A               1
                        (     115.330 eV)
   340     340       --         4.274 au  fA            1.00    340 A               1
                        (     116.296 eV)
   341     341       --         4.284 au  fA            1.00    341 A               1
                        (     116.575 eV)
   342     342       --         4.308 au  fA            1.00    342 A               1
                        (     117.225 eV)
   343     343       --         4.331 au  fA            1.00    343 A               1
                        (     117.848 eV)
   344     344       --         4.356 au  fA            1.00    344 A               1
                        (     118.546 eV)
   345     345       --         4.383 au  fA            1.00    345 A               1
                        (     119.281 eV)
   346     346       --         4.396 au  fA            1.00    346 A               1
                        (     119.619 eV)
   347     347       --         4.402 au  fA            1.00    347 A               1
                        (     119.789 eV)
   348     348       --         4.436 au  fA            1.00    348 A               1
                        (     120.719 eV)
   349     349       --         4.460 au  fA            1.00    349 A               1
                        (     121.358 eV)
   350     350       --         4.466 au  fA            1.00    350 A               1
                        (     121.528 eV)
   351     351       --         4.480 au  fA            1.00    351 A               1
                        (     121.918 eV)
   352     352       --         4.496 au  fA            1.00    352 A               1
                        (     122.343 eV)
   353     353       --         4.546 au  fA            1.00    353 A               1
                        (     123.706 eV)
   354     354       --         4.562 au  fA            1.00    354 A               1
                        (     124.133 eV)
   355     355       --         4.583 au  fA            1.00    355 A               1
                        (     124.721 eV)
   356     356       --         4.609 au  fA            1.00    356 A               1
                        (     125.424 eV)
   357     357       --         4.620 au  fA            1.00    357 A               1
                        (     125.710 eV)
   358     358       --         4.633 au  fA            1.00    358 A               1
                        (     126.077 eV)
   359     359       --         4.658 au  fA            1.00    359 A               1
                        (     126.751 eV)
   360     360       --         4.674 au  fA            1.00    360 A               1
                        (     127.178 eV)
   361     361       --         4.695 au  fA            1.00    361 A               1
                        (     127.755 eV)
   362     362       --         4.716 au  fA            1.00    362 A               1
                        (     128.323 eV)
   363     363       --         4.746 au  fA            1.00    363 A               1
                        (     129.144 eV)
   364     364       --         4.756 au  fA            1.00    364 A               1
                        (     129.411 eV)
   365     365       --         4.776 au  fA            1.00    365 A               1
                        (     129.968 eV)
   366     366       --         4.805 au  fA            1.00    366 A               1
                        (     130.762 eV)
   367     367       --         4.820 au  fA            1.00    367 A               1
                        (     131.148 eV)
   368     368       --         4.826 au  fA            1.00    368 A               1
                        (     131.325 eV)
   369     369       --         4.846 au  fA            1.00    369 A               1
                        (     131.856 eV)
   370     370       --         4.865 au  fA            1.00    370 A               1
                        (     132.388 eV)
   371     371       --         4.868 au  fA            1.00    371 A               1
                        (     132.461 eV)
   372     372       --         4.895 au  fA            1.00    372 A               1
                        (     133.187 eV)
   373     373       --         4.920 au  fA            1.00    373 A               1
                        (     133.887 eV)
   374     374       --         4.929 au  fA            1.00    374 A               1
                        (     134.123 eV)
   375     375       --         4.977 au  fA            1.00    375 A               1
                        (     135.433 eV)
   376     376       --         5.021 au  fA            1.00    376 A               1
                        (     136.623 eV)
   377     377       --         5.028 au  fA            1.00    377 A               1
                        (     136.821 eV)
   378     378       --         5.043 au  fA            1.00    378 A               1
                        (     137.234 eV)
   379     379       --         5.076 au  fA            1.00    379 A               1
                        (     138.125 eV)
   380     380       --         5.097 au  fA            1.00    380 A               1
                        (     138.702 eV)
   381     381       --         5.152 au  fA            1.00    381 A               1
                        (     140.180 eV)
   382     382       --         5.194 au  fA            1.00    382 A               1
                        (     141.331 eV)
   383     383       --         5.221 au  fA            1.00    383 A               1
                        (     142.064 eV)
   384     384       --         5.281 au  fA            1.00    384 A               1
                        (     143.704 eV)
   385     385       --         5.380 au  fA            1.00    385 A               1
[...]
     450       81.3491         0.000       
     449       80.9340         0.000       
     448       80.7192         0.000       
     447       80.5188         0.000       
     446       80.2521         0.000       
     445       80.0471         0.000       
     444       79.8419         0.000       
     443       79.2112         0.000       
     442       79.0718         0.000       
     441       78.7713         0.000       
     440       78.4964         0.000       
     439       78.3872         0.000       
     438       77.9626         0.000       
     437       77.7781         0.000       
     436       77.5605         0.000       
     435       77.2322         0.000       
     434       77.1373         0.000       
     433       76.9594         0.000       
     432       76.8855         0.000       
     431       76.6091         0.000       
     430       76.4612         0.000       
     429       76.3918         0.000       
     428       76.2573         0.000       
     427       75.9231         0.000       
     426       75.9047         0.000       
     425       75.8430         0.000       
     424       75.5920         0.000       
     423       75.4845         0.000       
     422       75.1756         0.000       
     421       75.0678         0.000       
     420       74.7187         0.000       
     419       74.5854         0.000       
     418       74.1586         0.000       
     417       73.5474         0.000       
     416       73.3870         0.000       
     415       73.0362         0.000       
     414       73.0017         0.000       
     413       72.1656         0.000       
     412       71.9658         0.000       
     411       70.9042         0.000       
     410       70.7234         0.000       
     409       69.9255         0.000       
     408       69.6781         0.000       
     407       69.2852         0.000       
     406       68.7085         0.000       
     405       68.4713         0.000       
     404       68.1133         0.000       
     403       67.9814         0.000       
     402       67.3550         0.000       
     401       66.7006         0.000       
     400       66.4466         0.000       
     399       65.7880         0.000       
     398       65.6696         0.000       
     397       65.2494         0.000       
     396       64.8892         0.000       
     395       64.5519         0.000       
     394       64.3751         0.000       
     393       64.2452         0.000       
     392       63.7559         0.000       
     391       63.5832         0.000       
     390       63.0467         0.000       
     389       62.7980         0.000       
     388       62.4855         0.000       
     387       62.2335         0.000       
     386       61.9453         0.000       
     385       61.8708         0.000       
     384       61.2345         0.000       
     383       61.0766         0.000       
     382       60.5895         0.000       
     381       60.5330         0.000       
     380       60.0583         0.000       
     379       59.9574         0.000       
     378       59.4461         0.000       
     377       59.2968         0.000       
     376       59.0507         0.000       
     375       58.6173         0.000       
     374       58.2202         0.000       
     373       58.0313         0.000       
     372       57.8624         0.000       
     371       57.7068         0.000       
     370       57.4772         0.000       
     369       57.2506         0.000       
     368       57.1125         0.000       
     367       56.6502         0.000       
     366       56.3832         0.000       
     365       56.0636         0.000       
     364       55.8802         0.000       
     363       55.6235         0.000       
     362       55.3465         0.000       
     361       54.9636         0.000       
     360       54.6102         0.000       
     359       54.3450         0.000       
     358       54.0181         0.000       
     357       53.6929         0.000       
     356       53.4775         0.000       
     355       53.3811         0.000       
     354       53.2682         0.000       
     353       52.7291         0.000       
     352       52.5434         0.000       
     351       52.0080         0.000       
     350       51.5724         0.000       
     349       51.0731         0.000       
     348       50.9102         0.000       
     347       50.6760         0.000       
     346       50.6372         0.000       
     345       50.4261         0.000       
     344       50.2085         0.000       
     343       49.9503         0.000       
     342       49.6894         0.000       
     341       49.6195         0.000       
     340       49.4452         0.000       
     339       49.2281         0.000       
     338       48.6390         0.000       
     337       48.4479         0.000       
     336       48.2122         0.000       
     335       47.9051         0.000       
     334       47.8466         0.000       
     333       47.5247         0.000       
     332       47.2960         0.000       
     331       47.0627         0.000       
     330       46.9091         0.000       
     329       46.7335         0.000       
     328       46.1611         0.000       
     327       45.8545         0.000       
     326       45.7080         0.000       
     325       45.4982         0.000       
     324       45.2692         0.000       
     323       44.9450         0.000       
     322       44.7837         0.000       
     321       44.4745         0.000       
     320       44.3116         0.000       
     319       43.9477         0.000       
     318       43.6080         0.000       
     317       43.4642         0.000       
     316       43.3169         0.000       
     315       43.0351         0.000       
     314       42.7880         0.000       
     313       42.7574         0.000       
     312       42.4689         0.000       
     311       42.3590         0.000       
     310       42.1196         0.000       
     309       41.6730         0.000       
     308       41.3220         0.000       
     307       41.1636         0.000       
     306       40.8917         0.000       
     305       40.6988         0.000       
     304       40.5230         0.000       
     303       40.3012         0.000       
     302       39.9695         0.000       
     301       39.8589         0.000       
     300       39.3024         0.000       
     299       39.0540         0.000       
     298       38.9275         0.000       
     297       38.7911         0.000       
     296       38.6419         0.000       
     295       38.4934         0.000       
     294       38.2235         0.000       
     293       38.0203         0.000       
     292       37.7773         0.000       
     291       37.4793         0.000       
     290       37.1529         0.000       
     289       36.9775         0.000       
     288       36.8425         0.000       
     287       36.5290         0.000       
     286       36.2442         0.000       
     285       36.1213         0.000       
     284       35.9648         0.000       
     283       35.7126         0.000       
     282       35.2818         0.000       
     281       35.1872         0.000       
     280       35.1346         0.000       
     279       34.5767         0.000       
     278       34.2843         0.000       
     277       34.0555         0.000       
     276       33.7800         0.000       
     275       33.6669         0.000       
     274       33.2853         0.000       
     273       33.1448         0.000       
     272       32.9342         0.000       
     271       32.7914         0.000       
     270       32.6936         0.000       
     269       32.4725         0.000       
     268       32.0799         0.000       
     267       31.7413         0.000       
     266       31.6943         0.000       
     265       31.5514         0.000       
     264       31.3048         0.000       
     263       30.9933         0.000       
     262       30.6417         0.000       
     261       30.5823         0.000       
     260       30.1655         0.000       
     259       29.9843         0.000       
     258       29.8733         0.000       
     257       29.7910         0.000       
     256       29.5258         0.000       
     255       29.2243         0.000       
     254       29.1322         0.000       
     253       28.8393         0.000       
     252       28.6470         0.000       
     251       28.5071         0.000       
     250       28.4036         0.000       
     249       28.2178         0.000       
     248       27.9434         0.000       
     247       27.8700         0.000       
     246       27.3970         0.000       
     245       27.3695         0.000       
     244       26.9989         0.000       
     243       26.8169         0.000       
     242       26.7354         0.000       
     241       26.5917         0.000       
     240       26.4032         0.000       
     239       26.1745         0.000       
     238       26.1169         0.000       
     237       26.0248         0.000       
     236       25.9116         0.000       
     235       25.5839         0.000       
     234       25.4365         0.000       
     233       25.0472         0.000       
     232       24.7621         0.000       
     231       24.4222         0.000       
     230       24.2362         0.000       
     229       23.9789         0.000       
     228       23.8762         0.000       
     227       23.3831         0.000       
     226       23.3053         0.000       
     225       23.1945         0.000       
     224       22.9219         0.000       
     223       22.6579         0.000       
     222       22.4663         0.000       
     221       22.3035         0.000       
     220       22.1691         0.000       
     219       21.8623         0.000       
     218       21.6235         0.000       
     217       21.3095         0.000       
     216       21.2769         0.000       
     215       21.1191         0.000       
     214       20.7742         0.000       
     213       20.7084         0.000       
     212       20.1197         0.000       
     211       19.9702         0.000       
     210       19.6307         0.000       
     209       19.4805         0.000       
     208       19.2671         0.000       
     207       19.0346         0.000       
     206       18.8052         0.000       
     205       18.6418         0.000       
     204       17.8723         0.000       
     203       17.7522         0.000       
     202       17.6107         0.000       
     201       17.3409         0.000       
     200       16.9709         0.000       
     199       16.8779         0.000       
     198       16.6256         0.000       
     197       16.0097         0.000       
     196       15.8016         0.000       
     195       15.7304         0.000       
     194       15.5898         0.000       
     193       15.2704         0.000       
     192       15.1470         0.000       
     191       15.0261         0.000       
     190       14.6991         0.000       
     189       14.5196         0.000       
     188       14.3078         0.000       
     187       14.0173         0.000       
     186       13.7544         0.000       
     185       13.6510         0.000       
     184       13.3881         0.000       
     183       13.2108         0.000       
     182       13.0157         0.000       
     181       12.8487         0.000       
     180       12.6712         0.000       
     179       12.3827         0.000       
     178       12.2347         0.000       
     177       11.9629         0.000       
     176       11.8335         0.000       
     175       11.5469         0.000       
     174       11.3944         0.000       
     173       11.2152         0.000       
     172       10.9847         0.000       
     171       10.9265         0.000       
     170       10.7112         0.000       
     169       10.6036         0.000       
     168       10.4449         0.000       
     167       10.2813         0.000       
     166       10.1999         0.000       
     165       10.0860         0.000       
     164        9.9912         0.000       
     163        9.7317         0.000       
     162        9.5957         0.000       
     161        9.5457         0.000       
     160        9.4152         0.000       
     159        9.3055         0.000       
     158        9.1231         0.000       
     157        8.9613         0.000       
     156        8.9086         0.000       
     155        8.9030         0.000       
     154        8.7309         0.000       
     153        8.6522         0.000       
     152        8.4859         0.000       
     151        8.3264         0.000       
     150        8.1125         0.000       
     149        7.9606         0.000       
     148        7.8826         0.000       
     147        7.6567         0.000       
     146        7.5802         0.000       
     145        7.4564         0.000       
     144        7.4041         0.000       
     143        7.2283         0.000       
     142        7.0276         0.000       
     141        6.8503         0.000       
     140        6.6834         0.000       
     139        6.5444         0.000       
     138        6.4132         0.000       
     137        6.3592         0.000       
     136        6.2329         0.000       
     135        5.8958         0.000       
     134        5.8278         0.000       
     133        5.7618         0.000       
     132        5.6699         0.000       
     131        5.4705         0.000       
     130        5.2933         0.000       
     129        5.1597         0.000       
     128        5.0624         0.000       
     127        4.9595         0.000       
     126        4.7513         0.000       
     125        4.7046         0.000       
     124        4.6271         0.000       
     123        4.4456         0.000       
     122        4.1874         0.000       
     121        4.1817         0.000       
     120        3.9905         0.000       
     119        3.9250         0.000       
     118        3.6188         0.000       
     117        3.5190         0.000       
     116        3.3569         0.000       
     115        2.9936         0.000       
     114        2.7744         0.000       
     113        2.5799         0.000       
     112        2.5123         0.000       
     111        2.4517         0.000       
     110        2.1294         0.000       
     109        1.8528         0.000       
     108        1.6995         0.000       
     107        1.6519         0.000       
     106        1.5641         0.000       
     105        1.4023         0.000       
     104        1.2351         0.000       
     103        1.1736         0.000       
     102        1.1182         0.000       
     101        1.0874         0.000       
     100        0.9671         0.000       
      99        0.8239         0.000       
      98        0.6637         0.000       
      97        0.4855         0.000       
      96        0.4239         0.000       
      95        0.1853         0.000       
      94        0.1265         0.000       
      93       -0.0406         0.000       
      92       -0.2444         0.000       
      91       -0.4731         0.000       
      90       -0.5157         0.000       
      89       -0.7428         0.000       
      88       -1.3334         0.000       
      87       -1.4590         0.000       
      86       -3.0900         0.000 < LUMO
      85       -5.0950         2.000 < HOMO
      84       -5.6800         2.000       
      83       -6.0218         2.000       
      82       -6.4095         2.000       
      81       -6.6234         2.000       
      80       -6.7576         2.000       
      79       -7.3170         2.000       
      78       -7.4973         2.000       
      77       -8.0015         2.000       
      76       -8.1948         2.000       
      75       -8.3213         2.000       
      74       -8.4510         2.000       
      73       -8.6078         2.000       
      72       -8.6998         2.000       
      71       -8.7983         2.000       
      70       -8.8876         2.000       
      69       -9.1720         2.000       
      68       -9.5169         2.000       
      67       -9.5971         2.000       
      66       -9.6390         2.000       
      65       -9.8346         2.000       
      64      -10.1044         2.000       
      63      -10.1815         2.000       
      62      -10.2789         2.000       
      61      -10.5734         2.000       
      60      -10.6005         2.000       
      59      -10.8166         2.000       
      58      -11.2978         2.000       
      57      -11.4862         2.000       
      56      -11.6804         2.000       
      55      -11.7114         2.000       
      54      -11.7643         2.000       
      53      -11.9117         2.000       
      52      -11.9919         2.000       
      51      -12.2265         2.000       
      50      -12.4038         2.000       
      49      -12.7206         2.000       
      48      -13.2178         2.000       
      47      -13.5103         2.000       
      46      -13.5505         2.000       
      45      -13.6852         2.000       
      44      -14.2120         2.000       
      43      -14.6204         2.000       
      42      -14.7816         2.000       
      41      -14.9379         2.000       
      40      -16.4309         2.000       
      39      -17.5303         2.000       
      38      -17.9425         2.000       
      37      -18.3658         2.000       
      36      -18.4798         2.000       
      35      -18.9212         2.000       
      34      -19.2208         2.000       
      33      -19.9953         2.000       
      32      -20.1077         2.000       
      31      -22.4563         2.000       
      30      -25.1938         2.000       
      29      -25.4063         2.000       
      28      -25.6282         2.000       
      27      -26.2751         2.000       
      26      -27.2902         2.000       
      25      -27.7841         2.000       
      24      -28.0013         2.000       
      23     -269.8630         2.000       
      22     -270.3522         2.000       
      21     -270.4058         2.000       
      20     -271.1182         2.000       
      19     -271.3864         2.000       
      18     -271.5055         2.000       
      17     -271.6487         2.000       
      16     -271.7317         2.000       
      15     -271.7831         2.000       
      14     -271.8082         2.000       
      13     -271.8673         2.000       
      12     -271.9293         2.000       
      11     -272.2239         2.000       
      10     -273.5595         2.000       
       9     -273.6952         2.000       
       8     -381.4967         2.000       
       7     -384.2089         2.000       
       6     -511.1427         2.000       
       5     -511.2557         2.000       
       4     -511.5437         2.000       
       3     -512.8324         2.000       
       2     -512.8461         2.000       
       1     -512.9674         2.000       

AMS application finished. Exiting.
NORMAL TERMINATION
     Total cpu time:     450.18
  Total system time:       0.77
 Total elapsed time:     453.53
NORMAL TERMINATION
