
 *******************************************************************************
 *                                                                             *
 *  --------------------------------                                           *
 *   Amsterdam Modeling Suite (AMS)              2026.103                      *
 *  --------------------------------                                           *
 *                                               r260501 2026-05-01 873454b5   *
 *                                                                             *
 *                                                                             *
 *                              =================                              *
 *                              |               |                              *
 *                              |     A M S     |                              *
 *                              |               |                              *
 *                              =================                              *
 *                                                                             *
 *                                                                             *
 *   Online information and documentation:  https://www.scm.com/support/       *
 *   E-mail:  support@scm.com   info@scm.com                                   *
 *                                                                             *
 *   Scientific publications using AMS results must be properly referenced     *
 *   See the User Manuals (or the web site) for recommended citations          *
 *   The terms and conditions of the End User License Agreement apply to       *
 *   the use of AMS, https://www.scm.com/license-terms/                        *
 *                                                                             *
 **********************  x86_64_linux_intel / intelmpi  ************************
 
 Licensed to: Jong-June Jeon / University of Seoul 2026-06-02 13:44:15
 SCM User ID: u30731
  
 AMS 2026.103  RunTime: Jun03-2026 23:25:39  ShM Nodes: 1  Procs: 1

 AMS jobname: c3_eda
 AMS jobid  : 32506374

 Start   directory: /gpfs/home1/yeseo1ee/projects/eda-asm-prediction/ADF_800/adf_outputs/batch_007/qmrxn20_sn2_C_E_A_B_C_A/
 Results directory: /gpfs/home1/yeseo1ee/projects/eda-asm-prediction/ADF_800/adf_outputs/batch_007/qmrxn20_sn2_C_E_A_B_C_A/c3_eda.results/
 Scratch directory: /tmp/amstmp_c3_eda_kid0.32506374/

 RNG seed: -1624875851 -384959084 -1579949099 -1549905106 530682280 1042129014 -1632170848 1398471081



                      ************************************************************************
                      *  ADF 2026.103  RunTime: Jun03-2026 23:25:39  ShM Nodes: 1  Procs: 1  *
                      ************************************************************************
  

       ****************************
       * SINGLE POINT CALCULATION *
       ****************************

--------
Geometry
--------
Formula: C3H5BrN3O2
Atoms
  Index Symbol   x (angstrom)   y (angstrom)   z (angstrom)
      1      H     2.34170285    -0.34431450    -0.46842944 adf.f=fA
      2      C     0.45932090    -0.07995170    -0.02252398 adf.f=fB
      3      H     1.75862976     1.64210364    -0.07930576 adf.f=fB
      4     Br    -1.72938617    -0.11779471     0.01923444 adf.f=fB
      5      C     0.69237241     1.42445943    -0.03252146 adf.f=fB
      6      H     0.24707856     1.83754592     0.86757292 adf.f=fB
      7      C     0.85613853    -0.90295130    -1.15731479 adf.f=fB
      8      N     0.70342709    -1.69537210    -2.03018602 adf.f=fB
      9      N     0.72683358    -0.61548061     1.31161970 adf.f=fB
     10      H     1.68819527    -0.93895449     1.28653485 adf.f=fB
     11      H     0.11523228    -1.41524700     1.43968027 adf.f=fB
     12      N     0.08618139     2.14981867    -1.18289588 adf.f=fB
     13      O    -0.45011603     3.23197788    -0.93828843 adf.f=fB
     14      O     0.23289959     1.67180086    -2.30335642 adf.f=fB

Total System Charge             -1.00000


----------------
ADF Engine Input
----------------
 
   Basis
     Type TZ2P
     Core None
   End
   XC
     GGA BLYP
     Dispersion GRIMME3 BJDAMP
   End
   Symmetry NOSYM
   NumericalQuality Normal
   Unrestricted No
   SCF
     Iterations 200
     Converge 1.0e-6
   End
   fragments
     fA c1_fragA_ts.results/adf.rkf
     fB c2_fragB_ts.results/adf.rkf
   end
   etsnocv
     enocv 0.05
     ekmin 0.5
   end
   print etslowdin
   Save TAPE21
 

 Title: *** (NO TITLE) ***

 *** adf ***



 ===========================
 A T T A C H E D   F I L E S
 ===========================
  



 ===============================
 M O D E L   P A R A M E T E R S
 ===============================
  
 DENSITY FUNCTIONAL POTENTIAL (scf)
    LDA:                               Exchange only                           == Not Default ==
    Gradient Corrections:              Becke88 LYP                             == Not Default ==

 SPIN  (restricted / unrestr.)
    Molecule:                          Restricted                               
    Fragments:                         Restricted                               

 OTHER ASPECTS
    Relativistic Corrections:          scalar (ZORA,MAPA)                       

    Nuclear Charge Density Model:      Point Charge Nuclei                      
    Core Treatment:                    Frozen Orbital(s)                        

    Hyperfine or Zeeman Interaction:   ---                                      

 Settings for Grimme D3 dispersion correction

      damping                        BJ
      s6                          1.000
      s8                          2.700
      a1                          0.430
      a2                          4.236

 Other (technical) parameters

      alpha                      14.000
      version                         4
 


 Fragment File(s)
 ----------------
 fA:
         file : c1_fragA_ts.results/adf.rkf
         jobid: 577852195
         title: *** adf ***
 fB:
         file : c2_fragB_ts.results/adf.rkf
         jobid: 1696919686
         title: *** adf ***



 ===============
 G E O M E T R Y  ***  3D  Molecule  ***
 ===============
  

 ATOMS
 =====                            X Y Z                    CHARGE
                                (Angstrom)             Nucl     +Core       At.Mass
                       --------------------------    ----------------       -------
    1  H               2.3417   -0.3443   -0.4684      1.00      1.00        1.0078
    2  C               0.4593   -0.0800   -0.0225      6.00      6.00       12.0000
    3  H               1.7586    1.6421   -0.0793      1.00      1.00        1.0078
    4  Br             -1.7294   -0.1178    0.0192     35.00     35.00       78.9183
    5  C               0.6924    1.4245   -0.0325      6.00      6.00       12.0000
    6  H               0.2471    1.8375    0.8676      1.00      1.00        1.0078
    7  C               0.8561   -0.9030   -1.1573      6.00      6.00       12.0000
    8  N               0.7034   -1.6954   -2.0302      7.00      7.00       14.0031
    9  N               0.7268   -0.6155    1.3116      7.00      7.00       14.0031
   10  H               1.6882   -0.9390    1.2865      1.00      1.00        1.0078
   11  H               0.1152   -1.4152    1.4397      1.00      1.00        1.0078
   12  N               0.0862    2.1498   -1.1829      7.00      7.00       14.0031
   13  O              -0.4501    3.2320   -0.9383      8.00      8.00       15.9949
   14  O               0.2329    1.6718   -2.3034      8.00      8.00       15.9949


 FRAGMENTS
 =========                                     Atoms in this Fragment     Cart. coord.s (Angstrom)
                                               -------------------------------------------------------
    1  fA                                                1  H            2.3417   -0.3443   -0.4684
    2  fB                                                2  C            0.4593   -0.0800   -0.0225
                                                         5  C            0.6924    1.4245   -0.0325
                                                         7  C            0.8561   -0.9030   -1.1573
                                                         3  H            1.7586    1.6421   -0.0793
                                                         6  H            0.2471    1.8375    0.8676
                                                        10  H            1.6882   -0.9390    1.2865
                                                        11  H            0.1152   -1.4152    1.4397
                                                         4  Br          -1.7294   -0.1178    0.0192
                                                         8  N            0.7034   -1.6954   -2.0302
                                                         9  N            0.7268   -0.6155    1.3116
                                                        12  N            0.0862    2.1498   -1.1829
                                                        13  O           -0.4501    3.2320   -0.9383
                                                        14  O            0.2329    1.6718   -2.3034


 Interatomic Distance Matrix (Angstrom)
 --------------------------------------

   1)     0.000
   2)     1.952   0.000
   3)     2.106   2.158   0.000
   4)     4.106   2.189   3.908   0.000
   5)     2.457   1.522   1.089   2.872   0.000
   6)     3.306   2.125   1.794   2.907   1.086   0.000
   7)     1.730   1.457   2.908   2.947   2.590   3.461   0.000
   8)     2.636   2.588   4.007   3.551   3.705   4.592   1.189   0.000
   9)     2.419   1.462   2.845   2.820   2.443   2.539   2.489   3.512   0.000
  10)     1.965   1.990   2.921   3.736   2.884   3.156   2.582   3.542   1.015   0.000
  11)     3.122   2.010   3.789   2.665   3.250   3.305   2.749   3.530   1.015   1.651
          0.000
  12)     3.438   2.541   2.067   3.144   1.489   2.080   3.148   3.986   3.779   4.267
          4.426   0.000
  13)     4.561   3.555   2.854   3.711   2.322   2.386   4.342   5.177   4.610   5.188
          5.251   1.232   0.000
  14)     3.447   2.885   2.697   3.528   2.330   3.175   2.886   3.411   4.306   4.671
          4.853   1.227   2.183   0.000

 Min. Distance =    1.0146
 Max. Distance =    5.2508



 =====================================
 S Y M M E T R Y ,   E L E C T R O N S
 =====================================
  
 Symmetry: NOSYM

 Irreducible Representations, including subspecies
 -------------------------------------------------
 A


 Configuration of Valence Electrons
 ==================================
 ( determined in the SCF procedure )

 Total:   96

 Net Charge: -1 (Nuclei minus Electrons)

 Aufbau principle for MO occupations will be applied through SCF cycle no.     100
 Thereafter, the program will assign electrons to MOs that are spatially
 similar to the occupied MOs in a "reference" cycle ("KeepOrbitals").
 The reference cycle is always the PREVIOUS cycle: it will evolve with
 the SCF procedure.
 ***************************************************************************************************



                                      ****************************************
                                      *  B U I L D : (Fragments, Functions)  *
                                      ****************************************
  

 The individual fragments are copies of the corresponding 'Master' fragments defined on the fragment files.
 However, they may have been rotated (and translated) with respect to the Master. The local coordinate axes
 of each fragment (which define for instance the spatial orientation in the current molecule of a fragment
 P:x orbital) are not necessarily those of the molecule.
 The local frame (if different from the molecular one) is printed to enable an interpretation of the expan-
 sion of an MO in Fragment Orbitals.



                                              ************************
                                              *  Fragment Type : fA  *
                                              ************************
  

 Fragment no.    1   (in the list of all fragments)
 -----------------
 The local coordinate frame is identical to the molecular frame.

 Check Atomic Coordinates:

                  Master (on file)          After Computed Tranformation               As specified on Input
           ----------------------------     ----------------------------     ---------------------------------
     1)     2.34170  -0.34431  -0.46843      2.34170  -0.34431  -0.46843       1   2.34170  -0.34431  -0.46843



                                              ************************
                                              *  Fragment Type : fB  *
                                              ************************
  

 Fragment no.    2   (in the list of all fragments)
 -----------------
 The local coordinate frame is identical to the molecular frame.

 Check Atomic Coordinates:

                  Master (on file)          After Computed Tranformation               As specified on Input
           ----------------------------     ----------------------------     ---------------------------------
     1)     0.45932  -0.07995  -0.02252      0.45932  -0.07995  -0.02252       2   0.45932  -0.07995  -0.02252
     2)     0.69237   1.42446  -0.03252      0.69237   1.42446  -0.03252       5   0.69237   1.42446  -0.03252
     3)     0.85614  -0.90295  -1.15731      0.85614  -0.90295  -1.15731       7   0.85614  -0.90295  -1.15731
     4)     1.75863   1.64210  -0.07931      1.75863   1.64210  -0.07931       3   1.75863   1.64210  -0.07931
     5)     0.24708   1.83755   0.86757      0.24708   1.83755   0.86757       6   0.24708   1.83755   0.86757
     6)     1.68820  -0.93895   1.28653      1.68820  -0.93895   1.28653      10   1.68820  -0.93895   1.28653
     7)     0.11523  -1.41525   1.43968      0.11523  -1.41525   1.43968      11   0.11523  -1.41525   1.43968
     8)    -1.72939  -0.11779   0.01923     -1.72939  -0.11779   0.01923       4  -1.72939  -0.11779   0.01923
     9)     0.70343  -1.69537  -2.03019      0.70343  -1.69537  -2.03019       8   0.70343  -1.69537  -2.03019
    10)     0.72683  -0.61548   1.31162      0.72683  -0.61548   1.31162       9   0.72683  -0.61548   1.31162
    11)     0.08618   2.14982  -1.18290      0.08618   2.14982  -1.18290      12   0.08618   2.14982  -1.18290
    12)    -0.45012   3.23198  -0.93829     -0.45012   3.23198  -0.93829      13  -0.45012   3.23198  -0.93829
    13)     0.23290   1.67180  -2.30336      0.23290   1.67180  -2.30336      14   0.23290   1.67180  -2.30336



 =======
 S F O s  ***  (Symmetrized Fragment Orbitals)  ***
 =======
  
 SFOs are linear combinations of (valence) Fragment Orbitals (FOs), such that the SFOs transform as the
 irreducible representations of the (molecular) symmetry group. Each SFO is therefore characterized by
 an irrep of the molecule and by a few (or only one) generating FOs.
 The SFOs constitute a symmetry-adapted basis for the Fock matrix. The MO eigenvector coefficients in
 this basis provide a direct interpretation of the MOs in terms of Frontier Orbital Theory.

 The SFOs are combined with auxiliary Core Functions (CFs) to ensure orthogonalization on the (frozen)
 Core Orbitals (COs). The Core-orthogonalized SFOs (CSFOs) constitute the true Fock basis.

 The FOs, and hence also the (C)SFOs are combinations of the elementary basis functions (BAS). The basis
 functions that participate in the description of the SFOs depend on the irrep. The indices of the
 involved functions are printed below for each irrep.
 (The complete list of primitive basis functions is printed in another section)

 Total nr. of (C)SFOs (summation over all irreps) :   319

 NOTE: a (C)SFO that is defined as a combination of more than one FO is usually NOT normalized.



                                       === A ===
 Nr. of SFOs :  319
 Cartesian basis functions that participate in this irrep (total number =   363) :
      1     2     3     4     5     6     7     8     9    10
     11    12    13    14    15    16    17    18    21    24
     19    22    25    20    23    26    27    28    29    30
     31    32    33    34    35    36    37    38    39    40
     41    42    43    44    45    46    47    48    51    54
     49    52    55    50    53    56    57    58    59    60
     61    62    63    64    65    66    67    68    69    70
     71    72    73    74    75    76    77    78    81    84
     79    82    85    80    83    86    87    88    89    90
     91    92    93    94    95    96    97    98    99   100
    101   102   103   104   105   106   107   108   109   110
    111   112   113   114   115   116   117   118   119   120
    121   122   123   124   125   126   127   128   129   130
    131   132   133   134   135   136   137   138   139   140
    141   142   143   144   145   146   147   148   149   150
    151   152   153   160   161   186   187   188   154   157
    162   165   189   192   195   155   158   163   166   190
    193   196   156   159   164   167   191   194   197   168
    174   180   198   169   175   181   199   170   176   182
    200   171   177   183   201   172   178   184   202   173
    179   185   203   204   205   206   207   208   209   210
    211   212   213   214   215   216   217   218   219   222
    225   220   223   226   221   224   227   228   229   230
    231   232   233   234   235   236   237   238   239   240
    241   242   243   244   245   246   247   248   249   252
    255   250   253   256   251   254   257   258   259   260
    261   262   263   264   265   266   267   268   269   270
    271   272   273   274   275   276   277   278   279   282
    285   280   283   286   281   284   287   288   289   290
    291   292   293   294   295   296   297   298   299   300
    301   302   303   304   305   306   307   308   309   312
    315   310   313   316   311   314   317   318   319   320
    321   322   323   324   325   326   327   328   329   330
    331   332   333   334   335   336   337   338   339   342
    345   340   343   346   341   344   347   348   349   350
    351   352   353   354   355   356   357   358   359   360
    361   362   363

    SFO  (index         Fragment          Generating    Expansion in Fragment Orbitals
  indx  incl.CFs)   Occup   Orb.Energy   FragmentType  Coeff.   Orbital     on Fragment
 --------------------------------------------------------------------------------------
     1       1      2.000       0.096 au  fA            1.00      1 A               1
                        (       2.603 eV)
     2       2       --         0.328 au  fA            1.00      2 A               1
                        (       8.927 eV)
     3       3       --         0.730 au  fA            1.00      3 A               1
                        (      19.877 eV)
     4       4       --         0.730 au  fA            1.00      4 A               1
                        (      19.877 eV)
     5       5       --         0.730 au  fA            1.00      5 A               1
                        (      19.877 eV)
     6       6       --         1.855 au  fA            1.00      6 A               1
                        (      50.479 eV)
     7       7       --         2.938 au  fA            1.00      7 A               1
                        (      79.959 eV)
     8       8       --         2.938 au  fA            1.00      8 A               1
                        (      79.959 eV)
     9       9       --         2.938 au  fA            1.00      9 A               1
                        (      79.959 eV)
    10      10       --         2.938 au  fA            1.00     10 A               1
                        (      79.959 eV)
    11      11       --         2.938 au  fA            1.00     11 A               1
                        (      79.959 eV)
    12      12      2.000    -488.636 au  fB            1.00      1 A               2
                        (  -13296.464 eV)
    13      13      2.000     -63.576 au  fB            1.00      2 A               2
                        (   -1729.979 eV)
    14      14      2.000     -56.115 au  fB            1.00      3 A               2
                        (   -1526.978 eV)
    15      15      2.000     -56.111 au  fB            1.00      4 A               2
                        (   -1526.849 eV)
    16      16      2.000     -56.111 au  fB            1.00      5 A               2
                        (   -1526.846 eV)
    17      17      2.000     -18.854 au  fB            1.00      6 A               2
                        (    -513.033 eV)
    18      18      2.000     -18.853 au  fB            1.00      7 A               2
                        (    -513.021 eV)
    19      19      2.000     -14.270 au  fB            1.00      8 A               2
                        (    -388.294 eV)
    20      20      2.000     -14.074 au  fB            1.00      9 A               2
                        (    -382.966 eV)
    21      21      2.000     -14.067 au  fB            1.00     10 A               2
                        (    -382.786 eV)
    22      22      2.000     -10.095 au  fB            1.00     11 A               2
                        (    -274.703 eV)
    23      23      2.000     -10.024 au  fB            1.00     12 A               2
                        (    -272.769 eV)
    24      24      2.000     -10.001 au  fB            1.00     13 A               2
                        (    -272.128 eV)
    25      25      2.000      -8.696 au  fB            1.00     14 A               2
                        (    -236.622 eV)
    26      26      2.000      -6.361 au  fB            1.00     15 A               2
                        (    -173.103 eV)
    27      27      2.000      -6.348 au  fB            1.00     16 A               2
                        (    -172.728 eV)
    28      28      2.000      -6.347 au  fB            1.00     17 A               2
                        (    -172.720 eV)
    29      29      2.000      -2.444 au  fB            1.00     18 A               2
                        (     -66.513 eV)
    30      30      2.000      -2.441 au  fB            1.00     19 A               2
                        (     -66.423 eV)
    31      31      2.000      -2.441 au  fB            1.00     20 A               2
                        (     -66.416 eV)
    32      32      2.000      -2.431 au  fB            1.00     21 A               2
                        (     -66.141 eV)
    33      33      2.000      -2.430 au  fB            1.00     22 A               2
                        (     -66.137 eV)
    34      34      2.000      -1.154 au  fB            1.00     23 A               2
                        (     -31.391 eV)
    35      35      2.000      -0.991 au  fB            1.00     24 A               2
                        (     -26.976 eV)
    36      36      2.000      -0.899 au  fB            1.00     25 A               2
                        (     -24.457 eV)
    37      37      2.000      -0.847 au  fB            1.00     26 A               2
                        (     -23.051 eV)
    38      38      2.000      -0.790 au  fB            1.00     27 A               2
                        (     -21.498 eV)
    39      39      2.000      -0.739 au  fB            1.00     28 A               2
                        (     -20.104 eV)
    40      40      2.000      -0.675 au  fB            1.00     29 A               2
                        (     -18.379 eV)
    41      41      2.000      -0.597 au  fB            1.00     30 A               2
                        (     -16.253 eV)
    42      42      2.000      -0.539 au  fB            1.00     31 A               2
                        (     -14.674 eV)
    43      43      2.000      -0.522 au  fB            1.00     32 A               2
                        (     -14.199 eV)
    44      44      2.000      -0.509 au  fB            1.00     33 A               2
                        (     -13.863 eV)
    45      45      2.000      -0.487 au  fB            1.00     34 A               2
                        (     -13.254 eV)
    46      46      2.000      -0.476 au  fB            1.00     35 A               2
                        (     -12.963 eV)
    47      47      2.000      -0.444 au  fB            1.00     36 A               2
                        (     -12.072 eV)
    48      48      2.000      -0.428 au  fB            1.00     37 A               2
                        (     -11.659 eV)
    49      49      2.000      -0.377 au  fB            1.00     38 A               2
                        (     -10.270 eV)
    50      50      2.000      -0.353 au  fB            1.00     39 A               2
                        (      -9.592 eV)
    51      51      2.000      -0.336 au  fB            1.00     40 A               2
                        (      -9.141 eV)
    52      52      2.000      -0.316 au  fB            1.00     41 A               2
                        (      -8.594 eV)
    53      53      2.000      -0.304 au  fB            1.00     42 A               2
                        (      -8.263 eV)
    54      54      2.000      -0.290 au  fB            1.00     43 A               2
                        (      -7.889 eV)
    55      55      2.000      -0.279 au  fB            1.00     44 A               2
                        (      -7.589 eV)
    56      56      2.000      -0.273 au  fB            1.00     45 A               2
                        (      -7.442 eV)
    57      57      2.000      -0.270 au  fB            1.00     46 A               2
                        (      -7.336 eV)
    58      58      2.000      -0.267 au  fB            1.00     47 A               2
                        (      -7.272 eV)
    59      59       --        -0.160 au  fB            1.00     48 A               2
                        (      -4.350 eV)
    60      60       --        -0.134 au  fB            1.00     49 A               2
                        (      -3.640 eV)
    61      61       --        -0.064 au  fB            1.00     50 A               2
                        (      -1.751 eV)
    62      62       --        -0.063 au  fB            1.00     51 A               2
                        (      -1.709 eV)
    63      63       --        -0.022 au  fB            1.00     52 A               2
                        (      -0.601 eV)
    64      64       --         0.003 au  fB            1.00     53 A               2
                        (       0.083 eV)
    65      65       --         0.019 au  fB            1.00     54 A               2
                        (       0.524 eV)
    66      66       --         0.031 au  fB            1.00     55 A               2
                        (       0.842 eV)
    67      67       --         0.053 au  fB            1.00     56 A               2
                        (       1.431 eV)
    68      68       --         0.061 au  fB            1.00     57 A               2
                        (       1.664 eV)
    69      69       --         0.092 au  fB            1.00     58 A               2
                        (       2.502 eV)
    70      70       --         0.100 au  fB            1.00     59 A               2
                        (       2.720 eV)
    71      71       --         0.116 au  fB            1.00     60 A               2
                        (       3.150 eV)
    72      72       --         0.132 au  fB            1.00     61 A               2
                        (       3.599 eV)
    73      73       --         0.143 au  fB            1.00     62 A               2
                        (       3.903 eV)
    74      74       --         0.158 au  fB            1.00     63 A               2
                        (       4.287 eV)
    75      75       --         0.162 au  fB            1.00     64 A               2
                        (       4.421 eV)
    76      76       --         0.171 au  fB            1.00     65 A               2
                        (       4.662 eV)
    77      77       --         0.191 au  fB            1.00     66 A               2
                        (       5.200 eV)
    78      78       --         0.196 au  fB            1.00     67 A               2
                        (       5.339 eV)
    79      79       --         0.202 au  fB            1.00     68 A               2
                        (       5.495 eV)
    80      80       --         0.222 au  fB            1.00     69 A               2
                        (       6.030 eV)
    81      81       --         0.235 au  fB            1.00     70 A               2
                        (       6.392 eV)
    82      82       --         0.237 au  fB            1.00     71 A               2
                        (       6.458 eV)
    83      83       --         0.243 au  fB            1.00     72 A               2
                        (       6.614 eV)
    84      84       --         0.256 au  fB            1.00     73 A               2
                        (       6.969 eV)
    85      85       --         0.276 au  fB            1.00     74 A               2
                        (       7.498 eV)
    86      86       --         0.290 au  fB            1.00     75 A               2
                        (       7.900 eV)
    87      87       --         0.300 au  fB            1.00     76 A               2
                        (       8.177 eV)
    88      88       --         0.319 au  fB            1.00     77 A               2
                        (       8.687 eV)
    89      89       --         0.323 au  fB            1.00     78 A               2
                        (       8.802 eV)
    90      90       --         0.342 au  fB            1.00     79 A               2
                        (       9.294 eV)
    91      91       --         0.362 au  fB            1.00     80 A               2
                        (       9.845 eV)
    92      92       --         0.378 au  fB            1.00     81 A               2
                        (      10.273 eV)
    93      93       --         0.390 au  fB            1.00     82 A               2
                        (      10.616 eV)
    94      94       --         0.399 au  fB            1.00     83 A               2
                        (      10.857 eV)
    95      95       --         0.418 au  fB            1.00     84 A               2
                        (      11.367 eV)
    96      96       --         0.429 au  fB            1.00     85 A               2
                        (      11.667 eV)
    97      97       --         0.458 au  fB            1.00     86 A               2
                        (      12.453 eV)
    98      98       --         0.460 au  fB            1.00     87 A               2
                        (      12.518 eV)
    99      99       --         0.472 au  fB            1.00     88 A               2
                        (      12.846 eV)
   100     100       --         0.487 au  fB            1.00     89 A               2
                        (      13.244 eV)
   101     101       --         0.505 au  fB            1.00     90 A               2
                        (      13.730 eV)
   102     102       --         0.513 au  fB            1.00     91 A               2
                        (      13.950 eV)
   103     103       --         0.533 au  fB            1.00     92 A               2
                        (      14.505 eV)
   104     104       --         0.564 au  fB            1.00     93 A               2
                        (      15.361 eV)
   105     105       --         0.603 au  fB            1.00     94 A               2
                        (      16.415 eV)
   106     106       --         0.609 au  fB            1.00     95 A               2
                        (      16.564 eV)
   107     107       --         0.635 au  fB            1.00     96 A               2
                        (      17.275 eV)
   108     108       --         0.658 au  fB            1.00     97 A               2
                        (      17.905 eV)
   109     109       --         0.692 au  fB            1.00     98 A               2
                        (      18.834 eV)
   110     110       --         0.696 au  fB            1.00     99 A               2
                        (      18.935 eV)
   111     111       --         0.755 au  fB            1.00    100 A               2
                        (      20.531 eV)
   112     112       --         0.792 au  fB            1.00    101 A               2
                        (      21.557 eV)
   113     113       --         0.810 au  fB            1.00    102 A               2
                        (      22.055 eV)
   114     114       --         0.821 au  fB            1.00    103 A               2
                        (      22.332 eV)
   115     115       --         0.833 au  fB            1.00    104 A               2
                        (      22.657 eV)
   116     116       --         0.863 au  fB            1.00    105 A               2
                        (      23.495 eV)
   117     117       --         0.869 au  fB            1.00    106 A               2
                        (      23.660 eV)
   118     118       --         0.893 au  fB            1.00    107 A               2
                        (      24.287 eV)
   119     119       --         0.916 au  fB            1.00    108 A               2
                        (      24.915 eV)
   120     120       --         0.950 au  fB            1.00    109 A               2
                        (      25.841 eV)
   121     121       --         0.964 au  fB            1.00    110 A               2
                        (      26.220 eV)
   122     122       --         0.970 au  fB            1.00    111 A               2
                        (      26.385 eV)
   123     123       --         0.987 au  fB            1.00    112 A               2
                        (      26.867 eV)
   124     124       --         1.010 au  fB            1.00    113 A               2
                        (      27.473 eV)
   125     125       --         1.030 au  fB            1.00    114 A               2
                        (      28.027 eV)
   126     126       --         1.040 au  fB            1.00    115 A               2
                        (      28.295 eV)
   127     127       --         1.049 au  fB            1.00    116 A               2
                        (      28.555 eV)
   128     128       --         1.091 au  fB            1.00    117 A               2
                        (      29.697 eV)
   129     129       --         1.096 au  fB            1.00    118 A               2
                        (      29.821 eV)
   130     130       --         1.107 au  fB            1.00    119 A               2
                        (      30.132 eV)
   131     131       --         1.124 au  fB            1.00    120 A               2
                        (      30.580 eV)
   132     132       --         1.174 au  fB            1.00    121 A               2
                        (      31.942 eV)
   133     133       --         1.179 au  fB            1.00    122 A               2
                        (      32.083 eV)
   134     134       --         1.190 au  fB            1.00    123 A               2
                        (      32.393 eV)
   135     135       --         1.223 au  fB            1.00    124 A               2
                        (      33.291 eV)
   136     136       --         1.237 au  fB            1.00    125 A               2
                        (      33.656 eV)
   137     137       --         1.245 au  fB            1.00    126 A               2
                        (      33.888 eV)
   138     138       --         1.262 au  fB            1.00    127 A               2
                        (      34.329 eV)
   139     139       --         1.289 au  fB            1.00    128 A               2
                        (      35.079 eV)
   140     140       --         1.306 au  fB            1.00    129 A               2
                        (      35.549 eV)
   141     141       --         1.325 au  fB            1.00    130 A               2
                        (      36.052 eV)
   142     142       --         1.352 au  fB            1.00    131 A               2
                        (      36.788 eV)
   143     143       --         1.368 au  fB            1.00    132 A               2
                        (      37.225 eV)
   144     144       --         1.407 au  fB            1.00    133 A               2
                        (      38.280 eV)
   145     145       --         1.418 au  fB            1.00    134 A               2
                        (      38.584 eV)
   146     146       --         1.460 au  fB            1.00    135 A               2
                        (      39.729 eV)
   147     147       --         1.469 au  fB            1.00    136 A               2
                        (      39.965 eV)
   148     148       --         1.505 au  fB            1.00    137 A               2
                        (      40.963 eV)
   149     149       --         1.511 au  fB            1.00    138 A               2
                        (      41.125 eV)
   150     150       --         1.518 au  fB            1.00    139 A               2
                        (      41.315 eV)
   151     151       --         1.563 au  fB            1.00    140 A               2
                        (      42.519 eV)
   152     152       --         1.608 au  fB            1.00    141 A               2
                        (      43.758 eV)
   153     153       --         1.628 au  fB            1.00    142 A               2
                        (      44.302 eV)
   154     154       --         1.646 au  fB            1.00    143 A               2
                        (      44.802 eV)
   155     155       --         1.674 au  fB            1.00    144 A               2
                        (      45.559 eV)
   156     156       --         1.733 au  fB            1.00    145 A               2
                        (      47.163 eV)
   157     157       --         1.752 au  fB            1.00    146 A               2
                        (      47.679 eV)
   158     158       --         1.769 au  fB            1.00    147 A               2
                        (      48.125 eV)
   159     159       --         1.801 au  fB            1.00    148 A               2
                        (      49.010 eV)
   160     160       --         1.877 au  fB            1.00    149 A               2
                        (      51.078 eV)
   161     161       --         1.917 au  fB            1.00    150 A               2
                        (      52.168 eV)
   162     162       --         1.920 au  fB            1.00    151 A               2
                        (      52.240 eV)
   163     163       --         1.930 au  fB            1.00    152 A               2
                        (      52.507 eV)
   164     164       --         1.981 au  fB            1.00    153 A               2
                        (      53.902 eV)
   165     165       --         1.993 au  fB            1.00    154 A               2
                        (      54.226 eV)
   166     166       --         2.024 au  fB            1.00    155 A               2
                        (      55.069 eV)
   167     167       --         2.098 au  fB            1.00    156 A               2
                        (      57.098 eV)
   168     168       --         2.115 au  fB            1.00    157 A               2
                        (      57.562 eV)
   169     169       --         2.153 au  fB            1.00    158 A               2
                        (      58.579 eV)
   170     170       --         2.185 au  fB            1.00    159 A               2
                        (      59.449 eV)
   171     171       --         2.196 au  fB            1.00    160 A               2
                        (      59.759 eV)
   172     172       --         2.228 au  fB            1.00    161 A               2
                        (      60.635 eV)
   173     173       --         2.279 au  fB            1.00    162 A               2
                        (      62.010 eV)
   174     174       --         2.290 au  fB            1.00    163 A               2
                        (      62.309 eV)
   175     175       --         2.310 au  fB            1.00    164 A               2
                        (      62.848 eV)
   176     176       --         2.377 au  fB            1.00    165 A               2
                        (      64.695 eV)
   177     177       --         2.423 au  fB            1.00    166 A               2
                        (      65.929 eV)
   178     178       --         2.452 au  fB            1.00    167 A               2
                        (      66.711 eV)
   179     179       --         2.490 au  fB            1.00    168 A               2
                        (      67.762 eV)
   180     180       --         2.508 au  fB            1.00    169 A               2
                        (      68.242 eV)
   181     181       --         2.556 au  fB            1.00    170 A               2
                        (      69.559 eV)
   182     182       --         2.575 au  fB            1.00    171 A               2
                        (      70.069 eV)
   183     183       --         2.606 au  fB            1.00    172 A               2
                        (      70.911 eV)
   184     184       --         2.633 au  fB            1.00    173 A               2
                        (      71.653 eV)
   185     185       --         2.700 au  fB            1.00    174 A               2
                        (      73.459 eV)
   186     186       --         2.752 au  fB            1.00    175 A               2
                        (      74.885 eV)
   187     187       --         2.785 au  fB            1.00    176 A               2
                        (      75.794 eV)
   188     188       --         2.813 au  fB            1.00    177 A               2
                        (      76.537 eV)
   189     189       --         2.827 au  fB            1.00    178 A               2
                        (      76.915 eV)
   190     190       --         2.887 au  fB            1.00    179 A               2
                        (      78.572 eV)
   191     191       --         2.899 au  fB            1.00    180 A               2
                        (      78.881 eV)
   192     192       --         2.918 au  fB            1.00    181 A               2
                        (      79.409 eV)
   193     193       --         2.950 au  fB            1.00    182 A               2
                        (      80.275 eV)
   194     194       --         2.965 au  fB            1.00    183 A               2
                        (      80.693 eV)
   195     195       --         2.996 au  fB            1.00    184 A               2
                        (      81.534 eV)
   196     196       --         3.020 au  fB            1.00    185 A               2
                        (      82.184 eV)
   197     197       --         3.094 au  fB            1.00    186 A               2
                        (      84.198 eV)
   198     198       --         3.113 au  fB            1.00    187 A               2
                        (      84.707 eV)
   199     199       --         3.153 au  fB            1.00    188 A               2
                        (      85.809 eV)
   200     200       --         3.194 au  fB            1.00    189 A               2
                        (      86.918 eV)
   201     201       --         3.212 au  fB            1.00    190 A               2
                        (      87.395 eV)
   202     202       --         3.275 au  fB            1.00    191 A               2
                        (      89.122 eV)
   203     203       --         3.302 au  fB            1.00    192 A               2
                        (      89.863 eV)
   204     204       --         3.333 au  fB            1.00    193 A               2
                        (      90.701 eV)
   205     205       --         3.374 au  fB            1.00    194 A               2
                        (      91.811 eV)
   206     206       --         3.382 au  fB            1.00    195 A               2
                        (      92.033 eV)
   207     207       --         3.404 au  fB            1.00    196 A               2
                        (      92.641 eV)
   208     208       --         3.419 au  fB            1.00    197 A               2
                        (      93.037 eV)
   209     209       --         3.463 au  fB            1.00    198 A               2
                        (      94.230 eV)
   210     210       --         3.492 au  fB            1.00    199 A               2
                        (      95.033 eV)
   211     211       --         3.518 au  fB            1.00    200 A               2
                        (      95.734 eV)
   212     212       --         3.524 au  fB            1.00    201 A               2
                        (      95.887 eV)
   213     213       --         3.555 au  fB            1.00    202 A               2
                        (      96.726 eV)
   214     214       --         3.569 au  fB            1.00    203 A               2
                        (      97.117 eV)
   215     215       --         3.588 au  fB            1.00    204 A               2
                        (      97.645 eV)
   216     216       --         3.615 au  fB            1.00    205 A               2
                        (      98.370 eV)
   217     217       --         3.692 au  fB            1.00    206 A               2
                        (     100.451 eV)
   218     218       --         3.718 au  fB            1.00    207 A               2
                        (     101.177 eV)
   219     219       --         3.729 au  fB            1.00    208 A               2
                        (     101.478 eV)
   220     220       --         3.758 au  fB            1.00    209 A               2
                        (     102.267 eV)
   221     221       --         3.780 au  fB            1.00    210 A               2
                        (     102.862 eV)
   222     222       --         3.804 au  fB            1.00    211 A               2
                        (     103.514 eV)
   223     223       --         3.844 au  fB            1.00    212 A               2
                        (     104.599 eV)
   224     224       --         3.850 au  fB            1.00    213 A               2
                        (     104.761 eV)
   225     225       --         3.886 au  fB            1.00    214 A               2
                        (     105.752 eV)
   226     226       --         3.915 au  fB            1.00    215 A               2
                        (     106.528 eV)
   227     227       --         3.933 au  fB            1.00    216 A               2
                        (     107.034 eV)
   228     228       --         3.966 au  fB            1.00    217 A               2
                        (     107.911 eV)
   229     229       --         3.979 au  fB            1.00    218 A               2
                        (     108.267 eV)
   230     230       --         3.991 au  fB            1.00    219 A               2
                        (     108.598 eV)
   231     231       --         4.007 au  fB            1.00    220 A               2
                        (     109.030 eV)
   232     232       --         4.044 au  fB            1.00    221 A               2
                        (     110.039 eV)
   233     233       --         4.079 au  fB            1.00    222 A               2
                        (     110.985 eV)
   234     234       --         4.136 au  fB            1.00    223 A               2
                        (     112.542 eV)
   235     235       --         4.198 au  fB            1.00    224 A               2
                        (     114.247 eV)
   236     236       --         4.215 au  fB            1.00    225 A               2
                        (     114.683 eV)
   237     237       --         4.253 au  fB            1.00    226 A               2
                        (     115.742 eV)
   238     238       --         4.278 au  fB            1.00    227 A               2
                        (     116.405 eV)
   239     239       --         4.318 au  fB            1.00    228 A               2
                        (     117.501 eV)
   240     240       --         4.344 au  fB            1.00    229 A               2
                        (     118.196 eV)
   241     241       --         4.384 au  fB            1.00    230 A               2
                        (     119.283 eV)
   242     242       --         4.427 au  fB            1.00    231 A               2
                        (     120.474 eV)
   243     243       --         4.439 au  fB            1.00    232 A               2
                        (     120.802 eV)
   244     244       --         4.514 au  fB            1.00    233 A               2
                        (     122.830 eV)
   245     245       --         4.568 au  fB            1.00    234 A               2
                        (     124.298 eV)
   246     246       --         4.582 au  fB            1.00    235 A               2
                        (     124.692 eV)
   247     247       --         4.626 au  fB            1.00    236 A               2
                        (     125.880 eV)
   248     248       --         4.657 au  fB            1.00    237 A               2
                        (     126.710 eV)
   249     249       --         4.685 au  fB            1.00    238 A               2
                        (     127.485 eV)
   250     250       --         4.755 au  fB            1.00    239 A               2
                        (     129.385 eV)
   251     251       --         4.820 au  fB            1.00    240 A               2
                        (     131.158 eV)
   252     252       --         4.858 au  fB            1.00    241 A               2
                        (     132.191 eV)
   253     253       --         4.887 au  fB            1.00    242 A               2
                        (     132.973 eV)
   254     254       --         4.977 au  fB            1.00    243 A               2
                        (     135.435 eV)
   255     255       --         5.005 au  fB            1.00    244 A               2
                        (     136.193 eV)
   256     256       --         5.057 au  fB            1.00    245 A               2
                        (     137.607 eV)
   257     257       --         5.103 au  fB            1.00    246 A               2
                        (     138.873 eV)
   258     258       --         5.184 au  fB            1.00    247 A               2
                        (     141.057 eV)
   259     259       --         5.271 au  fB            1.00    248 A               2
                        (     143.435 eV)
   260     260       --         5.298 au  fB            1.00    249 A               2
                        (     144.161 eV)
   261     261       --         5.390 au  fB            1.00    250 A               2
                        (     146.673 eV)
   262     262       --         5.447 au  fB            1.00    251 A               2
                        (     148.208 eV)
   263     263       --         5.535 au  fB            1.00    252 A               2
                        (     150.621 eV)
   264     264       --         5.574 au  fB            1.00    253 A               2
                        (     151.678 eV)
   265     265       --         5.634 au  fB            1.00    254 A               2
                        (     153.314 eV)
   266     266       --         5.850 au  fB            1.00    255 A               2
                        (     159.182 eV)
   267     267       --         5.949 au  fB            1.00    256 A               2
                        (     161.879 eV)
   268     268       --         6.007 au  fB            1.00    257 A               2
                        (     163.460 eV)
   269     269       --         6.100 au  fB            1.00    258 A               2
                        (     165.995 eV)
   270     270       --         6.154 au  fB            1.00    259 A               2
                        (     167.448 eV)
   271     271       --         6.225 au  fB            1.00    260 A               2
                        (     169.378 eV)
   272     272       --         6.276 au  fB            1.00    261 A               2
                        (     170.781 eV)
   273     273       --         6.306 au  fB            1.00    262 A               2
                        (     171.585 eV)
   274     274       --         6.346 au  fB            1.00    263 A               2
                        (     172.690 eV)
   275     275       --         6.475 au  fB            1.00    264 A               2
                        (     176.200 eV)
   276     276       --         6.562 au  fB            1.00    265 A               2
                        (     178.551 eV)
   277     277       --         6.625 au  fB            1.00    266 A               2
                        (     180.267 eV)
   278     278       --         6.731 au  fB            1.00    267 A               2
                        (     183.168 eV)
   279     279       --         6.796 au  fB            1.00    268 A               2
                        (     184.927 eV)
   280     280       --         6.842 au  fB            1.00    269 A               2
                        (     186.181 eV)
   281     281       --         6.889 au  fB            1.00    270 A               2
                        (     187.455 eV)
   282     282       --         7.081 au  fB            1.00    271 A               2
                        (     192.690 eV)
   283     283       --         7.185 au  fB            1.00    272 A               2
                        (     195.521 eV)
   284     284       --         7.355 au  fB            1.00    273 A               2
                        (     200.145 eV)
   285     285       --         7.411 au  fB            1.00    274 A               2
                        (     201.657 eV)
   286     286       --         7.487 au  fB            1.00    275 A               2
                        (     203.735 eV)
   287     287       --         7.642 au  fB            1.00    276 A               2
                        (     207.944 eV)
   288     288       --         7.749 au  fB            1.00    277 A               2
                        (     210.871 eV)
   289     289       --         7.769 au  fB            1.00    278 A               2
                        (     211.418 eV)
   290     290       --         8.334 au  fB            1.00    279 A               2
                        (     226.769 eV)
   291     291       --         8.689 au  fB            1.00    280 A               2
                        (     236.438 eV)
   292     292       --         8.853 au  fB            1.00    281 A               2
                        (     240.900 eV)
   293     293       --         8.973 au  fB            1.00    282 A               2
                        (     244.179 eV)
   294     294       --         9.054 au  fB            1.00    283 A               2
                        (     246.376 eV)
   295     295       --         9.325 au  fB            1.00    284 A               2
                        (     253.745 eV)
   296     296       --         9.503 au  fB            1.00    285 A               2
                        (     258.588 eV)
   297     297       --         9.624 au  fB            1.00    286 A               2
                        (     261.870 eV)
   298     298       --        10.503 au  fB            1.00    287 A               2
                        (     285.809 eV)
   299     299       --        11.022 au  fB            1.00    288 A               2
                        (     299.919 eV)
   300     300       --        14.581 au  fB            1.00    289 A               2
                        (     396.780 eV)
   301     301       --        15.658 au  fB            1.00    290 A               2
                        (     426.078 eV)
   302     302       --        15.892 au  fB            1.00    291 A               2
                        (     432.432 eV)
   303     303       --        20.708 au  fB            1.00    292 A               2
                        (     563.495 eV)
   304     304       --        20.748 au  fB            1.00    293 A               2
                        (     564.586 eV)
   305     305       --        21.107 au  fB            1.00    294 A               2
                        (     574.363 eV)
   306     306       --        21.191 au  fB            1.00    295 A               2
                        (     576.648 eV)
   307     307       --        21.354 au  fB            1.00    296 A               2
                        (     581.085 eV)
   308     308       --        55.127 au  fB            1.00    297 A               2
                        (    1500.075 eV)
   309     309       --        57.079 au  fB            1.00    298 A               2
                        (    1553.204 eV)
   310     310       --        59.092 au  fB            1.00    299 A               2
                        (    1607.972 eV)
   311     311       --        69.670 au  fB            1.00    300 A               2
                        (    1895.805 eV)
   312     312       --        71.272 au  fB            1.00    301 A               2
                        (    1939.414 eV)
   313     313       --        71.651 au  fB            1.00    302 A               2
                        (    1949.730 eV)
   314     314       --        95.967 au  fB            1.00    303 A               2
                        (    2611.382 eV)
   315     315       --        96.148 au  fB            1.00    304 A               2
                        (    2616.325 eV)
   316     316       --        97.060 au  fB            1.00    305 A               2
                        (    2641.141 eV)
   317     317       --       127.859 au  fB            1.00    306 A               2
                        (    3479.218 eV)
   318     318       --       128.632 au  fB            1.00    307 A               2
                        (    3500.264 eV)
   319     319       --       619.020 au  fB            1.00    308 A               2
                        (   16844.381 eV)



 ================================
 (Slater-type)  F U N C T I O N S  ***  (Basis and Fit)  ***
 ================================
  

 Atom Type    1  (H)
 ==============

 Valence Basis Sets:   5
 -----------------------
   1 S    0.690000
   1 S    0.920000
   1 S    1.580000
   2 P    1.250000
   3 D    2.500000

 Atom Type    2  (C)
 ==============

 Valence Basis Sets:  10
 -----------------------
   1 S    7.680000
   1 S    5.000000
   2 S    1.280000
   2 S    2.100000
   2 S    4.600000
   2 P    0.820000
   2 P    1.480000
   2 P    2.940000
   3 D    2.200000
   4 F    3.300000

 Atom Type    3  (H)
 ==============

 Valence Basis Sets:   5
 -----------------------
   1 S    0.690000
   1 S    0.920000
   1 S    1.580000
   2 P    1.250000
   3 D    2.500000

 Atom Type    4  (Br)
 ==============

 Valence Basis Sets:  20
 -----------------------
   1 S   41.300000
   1 S   32.800000
   2 S   13.900000
   2 P   19.450000
   2 P   13.100000
   3 S    7.200000
   3 S    4.950000
   3 P    7.900000
   3 P    5.050000
   3 D   10.900000
   3 D    6.050000
   3 D    3.500000
   4 S    4.500000
   4 S    2.800000
   4 S    1.800000
   4 P    3.250000
   4 P    1.950000
   4 P    1.200000
   4 D    1.800000
   4 F    1.800000

 Atom Type    5  (N)
 ==============

 Valence Basis Sets:  10
 -----------------------
   1 S    8.740000
   1 S    5.900000
   2 S    5.150000
   2 S    2.500000
   2 S    1.500000
   2 P    3.680000
   2 P    1.880000
   2 P    1.000000
   3 D    2.200000
   4 F    3.300000

 Atom Type    6  (O)
 ==============

 Valence Basis Sets:  10
 -----------------------
   1 S    9.800000
   1 S    6.800000
   2 S    7.580000
   2 S    2.880000
   2 S    1.720000
   2 P    4.080000
   2 P    2.080000
   2 P    1.120000
   3 D    2.000000
   4 F    3.000000


 BAS: List of all Elementary Cartesian Basis Functions
 =====================================================

 The numbering in the list below (to the right of the function characteristics) is referred
 to in print-outs of MO eigenvectors and Mulliken populations in the BAS representation
 (as contrasted to the SFO representation).

 Notes:
 1. The functions are characterized by a polynomial prefactor (powers of x,y,z and r) and
    an exponential decay factor alpha.
 2. Since the basis sets are specific for an atom TYPE, the individual functions occur on
    all atoms of that type.
 3. The word 'Core' in the left margin signals that it is a Core Function (CF) : not a
    degree of freedom in the valence set, but only used to ensure orthogonalization of
    the other valence basis functions on the frozen Core Orbitals.


 (power of) X  Y  Z  R     Alpha  on Atom
            ==========     =====     ==========

 H                                    1
                                  ---------------------------------------------------------------------------
            0  0  0  0     0.690      1
            0  0  0  0     0.920      2
            0  0  0  0     1.580      3
            1  0  0  0     1.250      4
            0  1  0  0     1.250      5
            0  0  1  0     1.250      6
            2  0  0  0     2.500      7
            1  1  0  0     2.500      8
            1  0  1  0     2.500      9
            0  2  0  0     2.500     10
            0  1  1  0     2.500     11
            0  0  2  0     2.500     12

 C                                    2    3    4
                                  ---------------------------------------------------------------------------
            0  0  0  0     7.680     13   43   73
            0  0  0  0     5.000     14   44   74
            0  0  0  1     1.280     15   45   75
            0  0  0  1     2.100     16   46   76
            0  0  0  1     4.600     17   47   77
            1  0  0  0     0.820     18   48   78
            0  1  0  0     0.820     19   49   79
            0  0  1  0     0.820     20   50   80
            1  0  0  0     1.480     21   51   81
            0  1  0  0     1.480     22   52   82
            0  0  1  0     1.480     23   53   83
            1  0  0  0     2.940     24   54   84
            0  1  0  0     2.940     25   55   85
            0  0  1  0     2.940     26   56   86
            2  0  0  0     2.200     27   57   87
            1  1  0  0     2.200     28   58   88
            1  0  1  0     2.200     29   59   89
            0  2  0  0     2.200     30   60   90
            0  1  1  0     2.200     31   61   91
            0  0  2  0     2.200     32   62   92
            3  0  0  0     3.300     33   63   93
            2  1  0  0     3.300     34   64   94
            2  0  1  0     3.300     35   65   95
            1  2  0  0     3.300     36   66   96
            1  1  1  0     3.300     37   67   97
            1  0  2  0     3.300     38   68   98
            0  3  0  0     3.300     39   69   99
            0  2  1  0     3.300     40   70  100
            0  1  2  0     3.300     41   71  101
            0  0  3  0     3.300     42   72  102

 H                                    5    6    7    8
                                  ---------------------------------------------------------------------------
            0  0  0  0     0.690    103  115  127  139
            0  0  0  0     0.920    104  116  128  140
            0  0  0  0     1.580    105  117  129  141
            1  0  0  0     1.250    106  118  130  142
            0  1  0  0     1.250    107  119  131  143
            0  0  1  0     1.250    108  120  132  144
            2  0  0  0     2.500    109  121  133  145
            1  1  0  0     2.500    110  122  134  146
            1  0  1  0     2.500    111  123  135  147
            0  2  0  0     2.500    112  124  136  148
            0  1  1  0     2.500    113  125  137  149
            0  0  2  0     2.500    114  126  138  150

 Br                                   9
                                  ---------------------------------------------------------------------------
            0  0  0  0    41.300    151
            0  0  0  0    32.800    152
            0  0  0  1    13.900    153
            1  0  0  0    19.450    154
            0  1  0  0    19.450    155
            0  0  1  0    19.450    156
            1  0  0  0    13.100    157
            0  1  0  0    13.100    158
            0  0  1  0    13.100    159
            0  0  0  2     7.200    160
            0  0  0  2     4.950    161
            1  0  0  1     7.900    162
            0  1  0  1     7.900    163
            0  0  1  1     7.900    164
            1  0  0  1     5.050    165
            0  1  0  1     5.050    166
            0  0  1  1     5.050    167
            2  0  0  0    10.900    168
            1  1  0  0    10.900    169
            1  0  1  0    10.900    170
            0  2  0  0    10.900    171
            0  1  1  0    10.900    172
            0  0  2  0    10.900    173
            2  0  0  0     6.050    174
            1  1  0  0     6.050    175
            1  0  1  0     6.050    176
            0  2  0  0     6.050    177
            0  1  1  0     6.050    178
            0  0  2  0     6.050    179
            2  0  0  0     3.500    180
            1  1  0  0     3.500    181
            1  0  1  0     3.500    182
            0  2  0  0     3.500    183
            0  1  1  0     3.500    184
            0  0  2  0     3.500    185
            0  0  0  3     4.500    186
            0  0  0  3     2.800    187
            0  0  0  3     1.800    188
            1  0  0  2     3.250    189
            0  1  0  2     3.250    190
            0  0  1  2     3.250    191
            1  0  0  2     1.950    192
            0  1  0  2     1.950    193
            0  0  1  2     1.950    194
            1  0  0  2     1.200    195
            0  1  0  2     1.200    196
            0  0  1  2     1.200    197
            2  0  0  1     1.800    198
            1  1  0  1     1.800    199
            1  0  1  1     1.800    200
            0  2  0  1     1.800    201
            0  1  1  1     1.800    202
            0  0  2  1     1.800    203
            3  0  0  0     1.800    204
            2  1  0  0     1.800    205
            2  0  1  0     1.800    206
            1  2  0  0     1.800    207
            1  1  1  0     1.800    208
            1  0  2  0     1.800    209
            0  3  0  0     1.800    210
            0  2  1  0     1.800    211
            0  1  2  0     1.800    212
            0  0  3  0     1.800    213

 N                                   10   11   12
                                  ---------------------------------------------------------------------------
            0  0  0  0     8.740    214  244  274
            0  0  0  0     5.900    215  245  275
            0  0  0  1     5.150    216  246  276
            0  0  0  1     2.500    217  247  277
            0  0  0  1     1.500    218  248  278
            1  0  0  0     3.680    219  249  279
            0  1  0  0     3.680    220  250  280
            0  0  1  0     3.680    221  251  281
            1  0  0  0     1.880    222  252  282
            0  1  0  0     1.880    223  253  283
            0  0  1  0     1.880    224  254  284
            1  0  0  0     1.000    225  255  285
            0  1  0  0     1.000    226  256  286
            0  0  1  0     1.000    227  257  287
            2  0  0  0     2.200    228  258  288
            1  1  0  0     2.200    229  259  289
            1  0  1  0     2.200    230  260  290
            0  2  0  0     2.200    231  261  291
            0  1  1  0     2.200    232  262  292
            0  0  2  0     2.200    233  263  293
            3  0  0  0     3.300    234  264  294
            2  1  0  0     3.300    235  265  295
            2  0  1  0     3.300    236  266  296
            1  2  0  0     3.300    237  267  297
            1  1  1  0     3.300    238  268  298
            1  0  2  0     3.300    239  269  299
            0  3  0  0     3.300    240  270  300
            0  2  1  0     3.300    241  271  301
            0  1  2  0     3.300    242  272  302
            0  0  3  0     3.300    243  273  303

 O                                   13   14
                                  ---------------------------------------------------------------------------
            0  0  0  0     9.800    304  334
            0  0  0  0     6.800    305  335
            0  0  0  1     7.580    306  336
            0  0  0  1     2.880    307  337
            0  0  0  1     1.720    308  338
            1  0  0  0     4.080    309  339
            0  1  0  0     4.080    310  340
            0  0  1  0     4.080    311  341
            1  0  0  0     2.080    312  342
            0  1  0  0     2.080    313  343
            0  0  1  0     2.080    314  344
            1  0  0  0     1.120    315  345
            0  1  0  0     1.120    316  346
            0  0  1  0     1.120    317  347
            2  0  0  0     2.000    318  348
            1  1  0  0     2.000    319  349
            1  0  1  0     2.000    320  350
            0  2  0  0     2.000    321  351
            0  1  1  0     2.000    322  352
            0  0  2  0     2.000    323  353
            3  0  0  0     3.000    324  354
            2  1  0  0     3.000    325  355
            2  0  1  0     3.000    326  356
            1  2  0  0     3.000    327  357
            1  1  1  0     3.000    328  358
            1  0  2  0     3.000    329  359
            0  3  0  0     3.000    330  360
            0  2  1  0     3.000    331  361
            0  1  2  0     3.000    332  362
            0  0  3  0     3.000    333  363

 Total number of charge fitting functions (nprimf)      1092
 Total number of Cartesian basis functions (naos)        363
 Total number of Cartesian core functions  (ncos)          0

 ***************************************************************************************************



                                              ***********************
                                              *  T E C H N I C A L  *
                                              ***********************
  



 =============================================================
 P A R A L L E L I Z A T I O N  and  V E C T O R I Z A T I O N
 =============================================================
  
 Nr of parallel processes:                                1
 Maximum vector length in NumInt loops:                 128



 =====================
 S C F   U P D A T E S
 =====================
  
 Max. nr. of cycles:                               200
 Convergence criterion:                              0.0000010000
   secondary criterion:                              0.0010000000

 Mix parameter (when DIIS does not apply):           0.2000000000
 Mixed ADIIS+SDIIS will be used                  
    Max number of expansion vectors:                10
    Pure ADIIS when Max([F,P]) is above              0.1000000000
    Pure SDIIS when Max([F,P]) is below              0.0010000000
 Automatic ElectronSmearing (in case of problematic SCF convergence) disabled



 =================
 P R E C I S I O N  ***  (General: NumInt, NeglectFunctionTails, ...)  ***
 =================
  

 NumInt:           Target precision:                 4.0000000000
 -------           Initial precision:                4.0000000000
                   Min. precision (optimization):    4.0000000000

 Neglect Functions:          Basis functions:        0.1000000000E-05
 ------------------          Fit functions:          0.1000000000E-05



 ===========================
 L I N E A R   S C A L I N G
 ===========================
  

 Cut-off radii density fit:                        0.1000000000E-07
 Overlap cut-off criterion AO matrix elements:     0.1000000000E-05
 Cut-offs for Coulomb potential and fitted density:0.1000000000E-07
 Cut-off criterion for Coulomb multipole terms:    0.1000000000E-07
 Progressive Convergence parameter:                 0.000000000    
 ***************************************************************************************************



                                            ***************************
                                            *  C O M P U T A T I O N  *
                                            ***************************
  

 Number of elements of the density matrix on this node (used, total):     66066     66066



 ===========================================
 Numerical Integration : Fuzzy Cells (Becke)
 ===========================================
  
 Becke grid quality: NORMAL         
  
 Lebedev angular grid order:             min:  11 max:  23
 Nr. of radial points:                   min:  46 max:  77

 Total nr. of points:      96029
 Nr. of blocks:              751
 Block length:               128
 Nr. of dummy points:         99


 Test of Precision of the Numerical Integration Grid
 ===================================================

 Integral of the Total Core Density:                   0.00000000000000



 ========================
 Density Fitting (zlmFit)
 ========================
  
 ZlmFit Fit Quality: NORMAL         
  
 Max L-expansion:                        min:   6 max:   7
 Nr. of radial interpolation points:     min:  39 max:  72



 =====
 S C F  ***  ScaSCF  ***
 =====
  
 Initial density matrix is calculated as sum of fragments

 CYCLE    1
 SCF Error: norm([F,P])=      1.352793054353, max([F,P])=      0.734445788726
 orbitals (Q,E):
 ---------------
 A :39...58          ( 2.00    -0.1700)  ( 2.00    -0.1658)  ( 2.00    -0.1538)  ( 2.00    -0.1456)
                     ( 2.00    -0.1439)  ( 2.00    -0.1292)  ( 2.00    -0.1189)  ( 2.00    -0.1112)
                     ( 2.00    -0.0788)  ( 2.00     0.0017)  ( 0.00     0.0166)  ( 0.00     0.0838)
                     ( 0.00     0.1195)  ( 0.00     0.1384)  ( 0.00     0.1668)  ( 0.00     0.1818)
                     ( 0.00     0.1935)  ( 0.00     0.2143)  ( 0.00     0.2234)  ( 0.00     0.2289)

 CYCLE    2
   MIX coefficients:  0.8000  0.2000
 SCF Error: norm([F,P])=      1.091519575773, max([F,P])=      0.264428009553
 orbitals (Q,E):
 ---------------
 A :39...49          ( 2.00    -0.1608)  ( 2.00    -0.1450)  ( 2.00    -0.1334)  ( 2.00    -0.1275)
                     ( 2.00    -0.1135)  ( 2.00    -0.1081)  ( 2.00    -0.1063)  ( 2.00    -0.0990)
                     ( 2.00    -0.0927)  ( 2.00    -0.0281)  ( 0.00     0.0483)

 CYCLE    3
  SDIIS (wt  0.000):  0.0234  0.9766
 A-DIIS (wt  1.000):  0.0000  1.0000
  DIIS coefficients:  0.0000  1.0000
 SCF Error: norm([F,P])=      0.237143414421, max([F,P])=      0.037977888518
 orbitals (Q,E):
 ---------------
 A :39...49          ( 2.00    -0.1980)  ( 2.00    -0.1835)  ( 2.00    -0.1632)  ( 2.00    -0.1338)
                     ( 2.00    -0.1242)  ( 2.00    -0.1039)  ( 2.00    -0.0972)  ( 2.00    -0.0868)
                     ( 2.00    -0.0772)  ( 2.00    -0.0358)  ( 0.00    -0.0138)

 CYCLE    4
  SDIIS (wt  0.000): -0.0353  0.9260  0.1092
 A-DIIS (wt  1.000):  0.0000  0.9629  0.0371
  DIIS coefficients:  0.0000  0.9629  0.0371
 SCF Error: norm([F,P])=      1.638805117778, max([F,P])=      0.293972592571
 orbitals (Q,E):
 ---------------
 A :39...49          ( 2.00    -0.1753)  ( 2.00    -0.1655)  ( 2.00    -0.1480)  ( 2.00    -0.1356)
                     ( 2.00    -0.1295)  ( 2.00    -0.1199)  ( 2.00    -0.1063)  ( 2.00    -0.0883)
                     ( 2.00    -0.0798)  ( 2.00    -0.0293)  ( 0.00    -0.0078)

 CYCLE    5
  SDIIS (wt  0.000):  0.0434  0.6503  0.0042  0.3021
 A-DIIS (wt  1.000):  0.0000  0.7517  0.0000  0.2483
  DIIS coefficients:  0.0000  0.7517  0.0000  0.2483
 SCF Error: norm([F,P])=      0.514110921253, max([F,P])=      0.123223383469
 orbitals (Q,E):
 ---------------
 A :39...49          ( 2.00    -0.1730)  ( 2.00    -0.1601)  ( 2.00    -0.1470)  ( 2.00    -0.1382)
                     ( 2.00    -0.1281)  ( 2.00    -0.1228)  ( 2.00    -0.1035)  ( 2.00    -0.0997)
                     ( 2.00    -0.0907)  ( 2.00    -0.0195)  ( 0.00     0.0003)

 CYCLE    6
  SDIIS (wt  0.481): -0.0187  0.4625 -0.0273  0.1622  0.4212
 A-DIIS (wt  0.519):  0.0000  0.5377  0.0000  0.0801  0.3822
  DIIS coefficients: -0.0090  0.5016 -0.0131  0.1196  0.4010
 SCF Error: norm([F,P])=      0.228045004903, max([F,P])=      0.052418070509
 orbitals (Q,E):
 ---------------
 A :39...49          ( 2.00    -0.1540)  ( 2.00    -0.1499)  ( 2.00    -0.1426)  ( 2.00    -0.1292)
                     ( 2.00    -0.1252)  ( 2.00    -0.1140)  ( 2.00    -0.1064)  ( 2.00    -0.0975)
                     ( 2.00    -0.0896)  ( 2.00    -0.0255)  ( 0.00     0.0220)

 CYCLE    7
  SDIIS (wt  0.714): -0.0146  0.2304 -0.0079 -0.0354  0.3595  0.4680
 A-DIIS (wt  0.286):  0.0000  0.1685  0.0000  0.0000  0.1949  0.6366
  DIIS coefficients: -0.0104  0.2127 -0.0056 -0.0252  0.3124  0.5162
 SCF Error: norm([F,P])=      0.118009322016, max([F,P])=      0.029320022510
 orbitals (Q,E):
 ---------------
 A :39...49          ( 2.00    -0.1557)  ( 2.00    -0.1520)  ( 2.00    -0.1447)  ( 2.00    -0.1296)
                     ( 2.00    -0.1246)  ( 2.00    -0.1173)  ( 2.00    -0.1054)  ( 2.00    -0.1021)
                     ( 2.00    -0.0937)  ( 2.00    -0.0208)  ( 0.00     0.0197)

 CYCLE    8
  SDIIS (wt  0.825): -0.0034  0.0864  0.0016 -0.0409  0.1588  0.4473  0.3502
 A-DIIS (wt  0.175):  0.0000  0.0000  0.0000  0.0000  0.0000  0.2905  0.7095
  DIIS coefficients: -0.0028  0.0712  0.0013 -0.0337  0.1310  0.4199  0.4131
 SCF Error: norm([F,P])=      0.062628307897, max([F,P])=      0.018337064176
 orbitals (Q,E):
 ---------------
 A :39...49          ( 2.00    -0.1560)  ( 2.00    -0.1512)  ( 2.00    -0.1436)  ( 2.00    -0.1288)
                     ( 2.00    -0.1244)  ( 2.00    -0.1169)  ( 2.00    -0.1040)  ( 2.00    -0.0992)
                     ( 2.00    -0.0909)  ( 2.00    -0.0212)  ( 0.00     0.0191)

 CYCLE    9
  SDIIS (wt  0.950): -0.0020  0.0139  0.0005 -0.0033  0.0348  0.1573  0.3283  0.4704
 A-DIIS (wt  0.050):  0.0000  0.0000  0.0000  0.0000  0.0000  0.0000  0.1236  0.8764
  DIIS coefficients: -0.0019  0.0132  0.0005 -0.0031  0.0330  0.1494  0.3181  0.4908
 SCF Error: norm([F,P])=      0.020729802833, max([F,P])=      0.005956334355
 orbitals (Q,E):
 ---------------
 A :39...49          ( 2.00    -0.1563)  ( 2.00    -0.1516)  ( 2.00    -0.1439)  ( 2.00    -0.1291)
[...]
                                    1.18%    73 A               6.969  0.00     2 fB
                                    1.17%    65 A               4.662  0.00     2 fB
                                    1.09%    72 A               6.614  0.00     2 fB
                                    1.04%    56 A               1.431  0.00     2 fB
      -0.07383         5 A         15.24%    39 A              -9.592  2.00     2 fB
                                   11.89%    40 A              -9.141  2.00     2 fB
                                   10.89%    47 A              -7.272  2.00     2 fB
                                    8.79%    54 A               0.524  0.00     2 fB
                                    5.18%    68 A               5.495  0.00     2 fB
                                    4.96%    41 A              -8.594  2.00     2 fB
                                    4.09%    69 A               6.030  0.00     2 fB
                                    3.73%    52 A              -0.601  0.00     2 fB
                                    2.79%    38 A             -10.270  2.00     2 fB
                                    2.74%    51 A              -1.709  0.00     2 fB
                                    2.68%    50 A              -1.751  0.00     2 fB
                                    2.66%    49 A              -3.640  0.00     2 fB
                                    2.54%    59 A               2.720  0.00     2 fB
                                    2.15%    73 A               6.969  0.00     2 fB
                                    2.14%    57 A               1.664  0.00     2 fB
                                    1.83%    44 A              -7.589  2.00     2 fB
                                    1.79%    60 A               3.150  0.00     2 fB
                                    1.34%    61 A               3.599  0.00     2 fB
                                    1.24%    43 A              -7.889  2.00     2 fB
                                    1.23%    67 A               5.339  0.00     2 fB
                                    1.17%    31 A             -14.674  2.00     2 fB
       0.07383       315 A         12.68%    39 A              -9.592  2.00     2 fB
                                   11.52%    40 A              -9.141  2.00     2 fB
                                   10.22%    47 A              -7.272  2.00     2 fB
                                    9.28%    54 A               0.524  0.00     2 fB
                                    7.49%    41 A              -8.594  2.00     2 fB
                                    5.52%    68 A               5.495  0.00     2 fB
                                    4.31%    69 A               6.030  0.00     2 fB
                                    4.10%    52 A              -0.601  0.00     2 fB
                                    2.88%    49 A              -3.640  0.00     2 fB
                                    2.86%    50 A              -1.751  0.00     2 fB
                                    2.72%    59 A               2.720  0.00     2 fB
                                    2.56%    51 A              -1.709  0.00     2 fB
                                    2.31%    57 A               1.664  0.00     2 fB
                                    2.31%    73 A               6.969  0.00     2 fB
                                    1.91%    44 A              -7.589  2.00     2 fB
                                    1.91%    60 A               3.150  0.00     2 fB
                                    1.78%    43 A              -7.889  2.00     2 fB
                                    1.48%    61 A               3.599  0.00     2 fB
                                    1.46%     5 A              19.877  0.00     1 fA
                                    1.32%    67 A               5.339  0.00     2 fB
                                    1.20%     3 A              19.877  0.00     1 fA
      -0.06165         6 A         18.77%    44 A              -7.589  2.00     2 fB
                                    8.89%    53 A               0.083  0.00     2 fB
                                    7.77%    47 A              -7.272  2.00     2 fB
                                    6.82%    39 A              -9.592  2.00     2 fB
                                    5.27%    55 A               0.842  0.00     2 fB
                                    4.60%    63 A               4.287  0.00     2 fB
                                    4.51%    43 A              -7.889  2.00     2 fB
                                    4.31%    65 A               4.662  0.00     2 fB
                                    4.26%    49 A              -3.640  0.00     2 fB
                                    3.92%    52 A              -0.601  0.00     2 fB
                                    3.72%    56 A               1.431  0.00     2 fB
                                    3.04%    37 A             -11.659  2.00     2 fB
                                    2.71%    41 A              -8.594  2.00     2 fB
                                    2.00%    60 A               3.150  0.00     2 fB
                                    1.85%    36 A             -12.072  2.00     2 fB
                                    1.73%    42 A              -8.263  2.00     2 fB
                                    1.71%    72 A               6.614  0.00     2 fB
                                    1.34%    35 A             -12.963  2.00     2 fB
                                    1.26%    57 A               1.664  0.00     2 fB
       0.06165       314 A         17.10%    44 A              -7.589  2.00     2 fB
                                    9.43%    53 A               0.083  0.00     2 fB
                                    7.58%    47 A              -7.272  2.00     2 fB
                                    6.09%    39 A              -9.592  2.00     2 fB
                                    5.60%    55 A               0.842  0.00     2 fB
                                    4.89%    63 A               4.287  0.00     2 fB
                                    4.65%    43 A              -7.889  2.00     2 fB
                                    4.60%    65 A               4.662  0.00     2 fB
                                    4.53%    49 A              -3.640  0.00     2 fB
                                    4.15%    52 A              -0.601  0.00     2 fB
                                    3.98%    56 A               1.431  0.00     2 fB
                                    2.81%    41 A              -8.594  2.00     2 fB
                                    2.32%    37 A             -11.659  2.00     2 fB
                                    2.13%    60 A               3.150  0.00     2 fB
                                    1.86%    36 A             -12.072  2.00     2 fB
                                    1.82%    72 A               6.614  0.00     2 fB
                                    1.68%    42 A              -8.263  2.00     2 fB
                                    1.34%    57 A               1.664  0.00     2 fB
                                    1.34%    35 A             -12.963  2.00     2 fB
      -0.05893         7 A         44.72%    45 A              -7.442  2.00     2 fB
                                   15.27%    64 A               4.421  0.00     2 fB
                                    5.39%    58 A               2.502  0.00     2 fB
                                    3.83%    53 A               0.083  0.00     2 fB
                                    2.74%    59 A               2.720  0.00     2 fB
                                    2.41%    67 A               5.339  0.00     2 fB
                                    2.32%    66 A               5.200  0.00     2 fB
                                    2.32%    49 A              -3.640  0.00     2 fB
                                    2.13%    57 A               1.664  0.00     2 fB
                                    1.85%    52 A              -0.601  0.00     2 fB
                                    1.79%    65 A               4.662  0.00     2 fB
                                    1.60%    62 A               3.903  0.00     2 fB
                                    1.58%    55 A               0.842  0.00     2 fB
                                    1.56%    47 A              -7.272  2.00     2 fB
                                    1.07%    35 A             -12.963  2.00     2 fB
       0.05893       313 A         42.08%    45 A              -7.442  2.00     2 fB
                                   16.19%    64 A               4.421  0.00     2 fB
                                    5.72%    58 A               2.502  0.00     2 fB
                                    4.07%    53 A               0.083  0.00     2 fB
                                    2.90%    59 A               2.720  0.00     2 fB
                                    2.56%    67 A               5.339  0.00     2 fB
                                    2.47%    66 A               5.200  0.00     2 fB
                                    2.46%    49 A              -3.640  0.00     2 fB
                                    2.25%    57 A               1.664  0.00     2 fB
                                    1.96%    52 A              -0.601  0.00     2 fB
                                    1.90%    65 A               4.662  0.00     2 fB
                                    1.69%    62 A               3.903  0.00     2 fB
                                    1.68%    55 A               0.842  0.00     2 fB
                                    1.46%    47 A              -7.272  2.00     2 fB
 Mulliken charges used for AMS results%charges...


    =====================
     CALCULATION RESULTS
    =====================

Energy (hartree)            -0.08684586


--------------
Atomic charges
--------------
  Index   Atom    Charge
      1      H   -0.4308
      2      C    0.2546
      3      H   -0.1656
      4     Br   -0.4477
      5      C    0.5562
      6      H   -0.1475
      7      C    0.1370
      8      N   -0.3809
      9      N   -0.0591
     10      H   -0.0114
     11      H   -0.0257
     12      N    0.5526
     13      O   -0.4374
     14      O   -0.3942


Dipole moment vector    (Debye):     0.27680621    0.20736110    6.77943436
              magnitude (Debye):     6.78825091


-----------------------
Molecular orbitals info
-----------------------
n orbitals:              319
n spin:                    1

Note: only printing virtual orbitals with
      energy smaller than HOMO + 100. eV

HOMO (eV):              -0.5814
LUMO (eV):               0.5079
HOMO-LUMO gap (eV):      1.0893

   Index   Energy (eV)    Occupation
     208       98.6228         0.000       
     207       98.0130         0.000       
     206       97.7152         0.000       
     205       97.1845         0.000       
     204       96.4286         0.000       
     203       96.0674         0.000       
     202       95.4204         0.000       
     201       94.7802         0.000       
     200       94.6728         0.000       
     199       93.6344         0.000       
     198       92.8495         0.000       
     197       92.0554         0.000       
     196       91.0579         0.000       
     195       89.4931         0.000       
     194       88.9084         0.000       
     193       87.6778         0.000       
     192       87.1046         0.000       
     191       86.0337         0.000       
     190       85.0114         0.000       
     189       84.7543         0.000       
     188       84.2328         0.000       
     187       83.4573         0.000       
     186       82.2825         0.000       
     185       81.6410         0.000       
     184       81.3484         0.000       
     183       79.9270         0.000       
     182       79.5545         0.000       
     181       78.4576         0.000       
     180       78.1624         0.000       
     179       76.7934         0.000       
     178       75.9773         0.000       
     177       75.3540         0.000       
     176       74.7727         0.000       
     175       74.0012         0.000       
     174       73.0414         0.000       
     173       71.8126         0.000       
     172       70.6522         0.000       
     171       69.5378         0.000       
     170       69.1123         0.000       
     169       67.1034         0.000       
     168       66.4737         0.000       
     167       65.8173         0.000       
     166       65.5039         0.000       
     165       64.4114         0.000       
     164       64.0645         0.000       
     163       63.7665         0.000       
     162       62.0719         0.000       
     161       61.2973         0.000       
     160       59.7495         0.000       
     159       59.3439         0.000       
     158       58.7614         0.000       
     157       58.6056         0.000       
     156       57.0802         0.000       
     155       56.3005         0.000       
     154       55.8876         0.000       
     153       54.0699         0.000       
     152       53.1526         0.000       
     151       53.0990         0.000       
     150       52.7532         0.000       
     149       50.7799         0.000       
     148       50.2784         0.000       
     147       49.5864         0.000       
     146       49.0544         0.000       
     145       48.2590         0.000       
     144       47.7789         0.000       
     143       46.5443         0.000       
     142       45.7859         0.000       
     141       45.4420         0.000       
     140       44.8028         0.000       
     139       44.7241         0.000       
     138       43.6394         0.000       
     137       42.9112         0.000       
     136       42.5409         0.000       
     135       41.9079         0.000       
     134       41.0957         0.000       
     133       40.3042         0.000       
     132       40.0689         0.000       
     131       38.8937         0.000       
     130       38.6748         0.000       
     129       38.1083         0.000       
     128       37.8165         0.000       
     127       37.3402         0.000       
     126       37.0364         0.000       
     125       36.6821         0.000       
     124       35.7372         0.000       
     123       35.2033         0.000       
     122       34.7074         0.000       
     121       34.2298         0.000       
     120       34.0013         0.000       
     119       33.3083         0.000       
     118       32.4592         0.000       
     117       32.2530         0.000       
     116       31.3115         0.000       
     115       31.2507         0.000       
     114       30.5640         0.000       
     113       30.2226         0.000       
     112       29.6373         0.000       
     111       29.4715         0.000       
     110       28.5388         0.000       
     109       28.1933         0.000       
     108       27.9083         0.000       
     107       27.4538         0.000       
     106       27.1315         0.000       
     105       26.7625         0.000       
     104       26.4465         0.000       
     103       25.7550         0.000       
     102       24.7682         0.000       
     101       23.4892         0.000       
     100       23.1402         0.000       
      99       22.4134         0.000       
      98       21.9656         0.000       
      97       21.0785         0.000       
      96       20.5383         0.000       
      95       20.2878         0.000       
      94       19.1947         0.000       
      93       18.4088         0.000       
      92       18.1660         0.000       
      91       17.5356         0.000       
      90       17.3311         0.000       
      89       17.0738         0.000       
      88       16.7084         0.000       
      87       16.4076         0.000       
      86       15.7077         0.000       
      85       15.4427         0.000       
      84       14.9232         0.000       
      83       14.6937         0.000       
      82       14.3717         0.000       
      81       13.8138         0.000       
      80       13.4681         0.000       
      79       13.1822         0.000       
      78       12.7001         0.000       
      77       12.3503         0.000       
      76       12.0295         0.000       
      75       11.8493         0.000       
      74       11.2753         0.000       
      73       11.1172         0.000       
      72       10.8638         0.000       
      71       10.5709         0.000       
      70       10.0882         0.000       
      69        9.8333         0.000       
      68        9.5167         0.000       
      67        9.4446         0.000       
      66        8.8747         0.000       
      65        8.5621         0.000       
      64        8.4904         0.000       
      63        8.2170         0.000       
      62        7.7844         0.000       
      61        7.2479         0.000       
      60        6.6531         0.000       
      59        6.5014         0.000       
      58        6.0357         0.000       
      57        5.7637         0.000       
      56        4.9014         0.000       
      55        4.6569         0.000       
      54        4.5509         0.000       
      53        4.1017         0.000       
      52        3.5179         0.000       
      51        3.0686         0.000       
      50        1.3615         0.000       
      49        0.5079         0.000 < LUMO
      48       -0.5814         2.000 < HOMO
      47       -2.4914         2.000       
      46       -2.7199         2.000       
      45       -2.8467         2.000       
      44       -3.1956         2.000       
      43       -3.3950         2.000       
      42       -3.5141         2.000       
      41       -3.9175         2.000       
      40       -4.1268         2.000       
      39       -4.2509         2.000       
      38       -5.3513         2.000       
      37       -7.1266         2.000       
      36       -7.3852         2.000       
      35       -8.3417         2.000       
      34       -9.1132         2.000       
      33       -9.2125         2.000       
      32       -9.9325         2.000       
      31      -10.2247         2.000       
      30      -11.5776         2.000       
      29      -13.4338         2.000       
      28      -15.2136         2.000       
      27      -16.8836         2.000       
      26      -17.2627         2.000       
      25      -19.4957         2.000       
      24      -22.8429         2.000       
      23      -27.2394         2.000       
      22      -61.1453         2.000       
      21      -61.1489         2.000       
      20      -61.3319         2.000       
      19      -61.3423         2.000       
      18      -61.4020         2.000       
      17     -167.7049         2.000       
      16     -167.7175         2.000       
      15     -167.9666         2.000       
      14     -231.5676         2.000       
      13     -266.7029         2.000       
      12     -268.1640         2.000       
      11     -269.3046         2.000       
      10     -376.3603         2.000       
       9     -378.1234         2.000       
       8     -384.0586         2.000       
       7     -508.8689         2.000       
       6     -508.8802         2.000       
       5    -1521.8066         2.000       
       4    -1521.8111         2.000       
       3    -1521.8956         2.000       
       2    -1724.9285         2.000       
       1   -13291.4658         2.000       

AMS application finished. Exiting.
NORMAL TERMINATION
     Total cpu time:      98.24
  Total system time:       0.39
 Total elapsed time:      98.96
NORMAL TERMINATION
