
 *******************************************************************************
 *                                                                             *
 *  --------------------------------                                           *
 *   Amsterdam Modeling Suite (AMS)              2026.103                      *
 *  --------------------------------                                           *
 *                                               r260501 2026-05-01 873454b5   *
 *                                                                             *
 *                                                                             *
 *                              =================                              *
 *                              |               |                              *
 *                              |     A M S     |                              *
 *                              |               |                              *
 *                              =================                              *
 *                                                                             *
 *                                                                             *
 *   Online information and documentation:  https://www.scm.com/support/       *
 *   E-mail:  support@scm.com   info@scm.com                                   *
 *                                                                             *
 *   Scientific publications using AMS results must be properly referenced     *
 *   See the User Manuals (or the web site) for recommended citations          *
 *   The terms and conditions of the End User License Agreement apply to       *
 *   the use of AMS, https://www.scm.com/license-terms/                        *
 *                                                                             *
 **********************  x86_64_linux_intel / intelmpi  ************************
 
 Licensed to: Jong-June Jeon / University of Seoul 2026-06-02 13:44:15
 SCM User ID: u30731
  
 AMS 2026.103  RunTime: Jun03-2026 14:01:24  ShM Nodes: 1  Procs: 1

 AMS jobname: c2_fragB_ts
 AMS jobid  : 716269694

 Start   directory: /gpfs/home1/yeseo1ee/projects/eda-asm-prediction/ADF_800/adf_outputs/batch_003/qmrxn20_e2_A_E_A_E_C_B/
 Results directory: /gpfs/home1/yeseo1ee/projects/eda-asm-prediction/ADF_800/adf_outputs/batch_003/qmrxn20_e2_A_E_A_E_C_B/c2_fragB_ts.results/
 Scratch directory: /tmp/amstmp_c2_fragB_ts_kid0.716269694/

 RNG seed: 1291692399 -278030032 1905857095 905208752 -900513436 -689714552 714932046 -2145015362



                      ************************************************************************
                      *  ADF 2026.103  RunTime: Jun03-2026 14:01:24  ShM Nodes: 1  Procs: 1  *
                      ************************************************************************
  

       ****************************
       * SINGLE POINT CALCULATION *
       ****************************

--------
Geometry
--------
Formula: C2H6BrN2
Atoms
  Index Symbol   x (angstrom)   y (angstrom)   z (angstrom)
      1      C    -0.21774960     0.09747029    -0.30884750
      2      C    -0.03023129     0.04321764     1.10993216
      3     Br     1.82330647     0.06722334    -1.38016503
      4      H    -0.55240814    -0.84307291    -0.74405664
      5      H     0.30434657     0.99700425     1.53338543
      6      N    -0.91776873     1.20142033    -0.87031102
      7      H    -0.59676552     2.04163404    -0.39963196
      8      H    -1.87975910     1.04426189    -0.56754956
      9      N     0.67620686    -1.09157691     1.67483551
     10      H     0.10440433    -1.92027194     1.55748165
     11      H     1.52407779    -1.23770965     1.12827953

Total System Charge              0.00000


----------------
ADF Engine Input
----------------
 
   Basis
     Type TZ2P
     Core None
   End
   XC
     GGA BLYP
     Dispersion GRIMME3 BJDAMP
   End
   Symmetry NOSYM
   NumericalQuality Normal
   Unrestricted No
   SCF
     Iterations 200
     Converge 1.0e-6
   End
   Save TAPE21
 

 Title: *** (NO TITLE) ***

 *** adf ***



 ===========================
 A T T A C H E D   F I L E S
 ===========================
  



 ===============================
 M O D E L   P A R A M E T E R S
 ===============================
  
 DENSITY FUNCTIONAL POTENTIAL (scf)
    LDA:                               Exchange only                           == Not Default ==
    Gradient Corrections:              Becke88 LYP                             == Not Default ==

 SPIN  (restricted / unrestr.)
    Molecule:                          Restricted                               
    Fragments:                         Restricted                               

 OTHER ASPECTS
    Relativistic Corrections:          scalar (ZORA,MAPA)                       

    Nuclear Charge Density Model:      Point Charge Nuclei                      
    Core Treatment:                    Frozen Orbital(s)                        

    Hyperfine or Zeeman Interaction:   ---                                      

 Settings for Grimme D3 dispersion correction

      damping                        BJ
      s6                          1.000
      s8                          2.700
      a1                          0.430
      a2                          4.236

 Other (technical) parameters

      alpha                      14.000
      version                         4
 


 Fragment File(s)
 ----------------
 C:
         file : /gpfs/home1/yeseo1ee/projects/eda-asm-prediction/ADF_800/adf_outputs/batch_003/qmrxn20_e2_A_E_A_E_C_B/c2_fragB_ts.results/t21.50BA88D5.C
         jobid: 0
         title: Carbon (TZ2P)
 Br:
         file : /gpfs/home1/yeseo1ee/projects/eda-asm-prediction/ADF_800/adf_outputs/batch_003/qmrxn20_e2_A_E_A_E_C_B/c2_fragB_ts.results/t21.42F58B50.Br
         jobid: 0
         title: Bromine (TZ2P)
 H:
         file : /gpfs/home1/yeseo1ee/projects/eda-asm-prediction/ADF_800/adf_outputs/batch_003/qmrxn20_e2_A_E_A_E_C_B/c2_fragB_ts.results/t21.6F35CCAB.H
         jobid: 0
         title: Hydrogen (TZ2P)
 N:
         file : /gpfs/home1/yeseo1ee/projects/eda-asm-prediction/ADF_800/adf_outputs/batch_003/qmrxn20_e2_A_E_A_E_C_B/c2_fragB_ts.results/t21.44EAA48D.N
         jobid: 0
         title: Nitrogen (TZ2P)



 ===============
 G E O M E T R Y  ***  3D  Molecule  ***
 ===============
  

 ATOMS
 =====                            X Y Z                    CHARGE
                                (Angstrom)             Nucl     +Core       At.Mass
                       --------------------------    ----------------       -------
    1  C              -0.2177    0.0975   -0.3088      6.00      6.00       12.0000
    2  C              -0.0302    0.0432    1.1099      6.00      6.00       12.0000
    3  Br              1.8233    0.0672   -1.3802     35.00     35.00       78.9183
    4  H              -0.5524   -0.8431   -0.7441      1.00      1.00        1.0078
    5  H               0.3043    0.9970    1.5334      1.00      1.00        1.0078
    6  N              -0.9178    1.2014   -0.8703      7.00      7.00       14.0031
    7  H              -0.5968    2.0416   -0.3996      1.00      1.00        1.0078
    8  H              -1.8798    1.0443   -0.5675      1.00      1.00        1.0078
    9  N               0.6762   -1.0916    1.6748      7.00      7.00       14.0031
   10  H               0.1044   -1.9203    1.5575      1.00      1.00        1.0078
   11  H               1.5241   -1.2377    1.1283      1.00      1.00        1.0078


 FRAGMENTS
 =========                                     Atoms in this Fragment     Cart. coord.s (Angstrom)
                                               -------------------------------------------------------
    1  C                                                 1  C           -0.2177    0.0975   -0.3088
    2  C                                                 2  C           -0.0302    0.0432    1.1099
    3  Br                                                3  Br           1.8233    0.0672   -1.3802
    4  H                                                 4  H           -0.5524   -0.8431   -0.7441
    5  H                                                 5  H            0.3043    0.9970    1.5334
    6  H                                                 7  H           -0.5968    2.0416   -0.3996
    7  H                                                 8  H           -1.8798    1.0443   -0.5675
    8  H                                                10  H            0.1044   -1.9203    1.5575
    9  H                                                11  H            1.5241   -1.2377    1.1283
   10  N                                                 6  N           -0.9178    1.2014   -0.8703
   11  N                                                 9  N            0.6762   -1.0916    1.6748


 Interatomic Distance Matrix (Angstrom)
 --------------------------------------

   1)     0.000
   2)     1.432   0.000
   3)     2.305   3.104   0.000
   4)     1.089   2.120   2.622   0.000
   5)     2.116   1.096   3.415   3.051   0.000
   6)     1.423   2.460   3.010   2.081   2.704   0.000
   7)     1.983   2.568   3.274   2.906   2.375   1.015   0.000
   8)     1.930   2.690   3.915   2.314   3.031   1.021   1.634   0.000
   9)     2.480   1.451   3.463   2.724   2.126   3.778   3.967   4.015   0.000
  10)     2.767   2.018   3.941   2.625   2.924   4.085   4.474   4.152   1.014   0.000
  11)     2.623   2.014   2.843   2.824   2.578   3.988   4.194   4.435   1.019   1.633
          0.000

 Min. Distance =    1.0136
 Max. Distance =    4.4742



 =====================================
 S Y M M E T R Y ,   E L E C T R O N S
 =====================================
  
 Symmetry: NOSYM

 Irreducible Representations, including subspecies
 -------------------------------------------------
 A


 Configuration of Valence Electrons
 ==================================
 ( determined in the SCF procedure )

 Total:   67

 ===============
 W A R N I N G :
 ===============

 The number of electrons does not correspond to doubly occupied orbitals,
 i.e. there would be one orbital with 0.5-alpha and 0.5-beta electrons.

 Normally, this corresponds to a doublet that should be treated within
 the UNRESTRICTED framework. For example, for a doublet:

   CHARGE   0.0 1.0
   Unrestricted

 See the online manual (http://www.scm.com) for more information on
 how to use the UNRESTRICTED framework.

 If you are definitely certain that for this job the restricted open-shell
 is appropriate, you can overcome this warning by placing on input:
   ALLOW ROKS

 In case of doubt, contact support@scm.com with this problem.

 Net Charge: 0 (Nuclei minus Electrons)

 Aufbau principle for MO occupations will be applied through SCF cycle no.     100
 Thereafter, the program will assign electrons to MOs that are spatially
 similar to the occupied MOs in a "reference" cycle ("KeepOrbitals").
 The reference cycle is always the PREVIOUS cycle: it will evolve with
 the SCF procedure.
 ***************************************************************************************************



                                      ****************************************
                                      *  B U I L D : (Fragments, Functions)  *
                                      ****************************************
  



 =======
 S F O s  ***  (Symmetrized Fragment Orbitals)  ***
 =======
  
 SFOs are linear combinations of (valence) Fragment Orbitals (FOs), such that the SFOs transform as the
 irreducible representations of the (molecular) symmetry group. Each SFO is therefore characterized by
 an irrep of the molecule and by a few (or only one) generating FOs.
 The SFOs constitute a symmetry-adapted basis for the Fock matrix. The MO eigenvector coefficients in
 this basis provide a direct interpretation of the MOs in terms of Frontier Orbital Theory.

 The SFOs are combined with auxiliary Core Functions (CFs) to ensure orthogonalization on the (frozen)
 Core Orbitals (COs). The Core-orthogonalized SFOs (CSFOs) constitute the true Fock basis.

 The FOs, and hence also the (C)SFOs are combinations of the elementary basis functions (BAS). The basis
 functions that participate in the description of the SFOs depend on the irrep. The indices of the
 involved functions are printed below for each irrep.
 (The complete list of primitive basis functions is printed in another section)

 Total nr. of (C)SFOs (summation over all irreps) :   226

 NOTE: a (C)SFO that is defined as a combination of more than one FO is usually NOT normalized.



                                       === A ===
 Nr. of SFOs :  226
 Cartesian basis functions that participate in this irrep (total number =   255) :
      1     2     3     4     5     6     9    12     7    10
     13     8    11    14    15    16    17    18    19    20
     21    22    23    24    25    26    27    28    29    30
     31    32    33    34    35    36    39    42    37    40
     43    38    41    44    45    46    47    48    49    50
     51    52    53    54    55    56    57    58    59    60
     61    62    63    70    71    96    97    98    64    67
     72    75    99   102   105    65    68    73    76   100
    103   106    66    69    74    77   101   104   107    78
     84    90   108    79    85    91   109    80    86    92
    110    81    87    93   111    82    88    94   112    83
     89    95   113   114   115   116   117   118   119   120
    121   122   123   124   125   126   127   128   129   130
    131   132   133   134   135   136   137   138   139   140
    141   142   143   144   145   146   147   148   149   150
    151   152   153   154   155   156   157   158   159   160
    161   162   163   164   165   166   167   168   169   170
    171   172   173   174   175   176   177   178   179   180
    181   182   183   184   185   186   187   188   189   190
    191   192   193   194   195   196   197   198   199   200
    201   204   207   202   205   208   203   206   209   210
    211   212   213   214   215   216   217   218   219   220
    221   222   223   224   225   226   227   228   229   230
    231   234   237   232   235   238   233   236   239   240
    241   242   243   244   245   246   247   248   249   250
    251   252   253   254   255

    SFO  (index         Fragment          Generating    Expansion in Fragment Orbitals
  indx  incl.CFs)   Occup   Orb.Energy   FragmentType  Coeff.   Orbital     on Fragment
 --------------------------------------------------------------------------------------
     1       1      2.000     -10.066 au  C             1.00      1 S               1
                        (    -273.921 eV)
     2       2      2.000      -0.501 au  C             1.00      2 S               1
                        (     -13.620 eV)
     3       3       --         0.373 au  C             1.00      3 S               1
                        (      10.158 eV)
     4       4       --         5.405 au  C             1.00      4 S               1
                        (     147.073 eV)
     5       5       --        49.848 au  C             1.00      5 S               1
                        (    1356.422 eV)
     6       6      0.667      -0.193 au  C             1.00      1 P:x             1
                        (      -5.239 eV)
     7       7       --         0.169 au  C             1.00      2 P:x             1
                        (       4.589 eV)
     8       8       --         2.013 au  C             1.00      3 P:x             1
                        (      54.789 eV)
     9       9      0.667      -0.193 au  C             1.00      1 P:y             1
                        (      -5.239 eV)
    10      10       --         0.169 au  C             1.00      2 P:y             1
                        (       4.589 eV)
    11      11       --         2.013 au  C             1.00      3 P:y             1
                        (      54.789 eV)
    12      12      0.667      -0.193 au  C             1.00      1 P:z             1
                        (      -5.239 eV)
    13      13       --         0.169 au  C             1.00      2 P:z             1
                        (       4.589 eV)
    14      14       --         2.013 au  C             1.00      3 P:z             1
                        (      54.789 eV)
    15      15       --         1.243 au  C             1.00      1 D:z2            1
                        (      33.824 eV)
    16      16       --         1.243 au  C             1.00      1 D:x2-y2         1
                        (      33.824 eV)
    17      17       --         1.243 au  C             1.00      1 D:xy            1
                        (      33.824 eV)
    18      18       --         1.243 au  C             1.00      1 D:xz            1
                        (      33.824 eV)
    19      19       --         1.243 au  C             1.00      1 D:yz            1
                        (      33.824 eV)
    20      20       --         4.016 au  C             1.00      1 F:z3            1
                        (     109.271 eV)
    21      21       --         4.016 au  C             1.00      1 F:z             1
                        (     109.271 eV)
    22      22       --         4.016 au  C             1.00      1 F:xyz           1
                        (     109.271 eV)
    23      23       --         4.016 au  C             1.00      1 F:z2x           1
                        (     109.271 eV)
    24      24       --         4.016 au  C             1.00      1 F:z2y           1
                        (     109.271 eV)
    25      25       --         4.016 au  C             1.00      1 F:x             1
                        (     109.271 eV)
    26      26       --         4.016 au  C             1.00      1 F:y             1
                        (     109.271 eV)
    27      27      2.000     -10.066 au  C             1.00      1 S               2
                        (    -273.921 eV)
    28      28      2.000      -0.501 au  C             1.00      2 S               2
                        (     -13.620 eV)
    29      29       --         0.373 au  C             1.00      3 S               2
                        (      10.158 eV)
    30      30       --         5.405 au  C             1.00      4 S               2
                        (     147.073 eV)
    31      31       --        49.848 au  C             1.00      5 S               2
                        (    1356.422 eV)
    32      32      0.667      -0.193 au  C             1.00      1 P:x             2
                        (      -5.239 eV)
    33      33       --         0.169 au  C             1.00      2 P:x             2
                        (       4.589 eV)
    34      34       --         2.013 au  C             1.00      3 P:x             2
                        (      54.789 eV)
    35      35      0.667      -0.193 au  C             1.00      1 P:y             2
                        (      -5.239 eV)
    36      36       --         0.169 au  C             1.00      2 P:y             2
                        (       4.589 eV)
    37      37       --         2.013 au  C             1.00      3 P:y             2
                        (      54.789 eV)
    38      38      0.667      -0.193 au  C             1.00      1 P:z             2
                        (      -5.239 eV)
    39      39       --         0.169 au  C             1.00      2 P:z             2
                        (       4.589 eV)
    40      40       --         2.013 au  C             1.00      3 P:z             2
                        (      54.789 eV)
    41      41       --         1.243 au  C             1.00      1 D:z2            2
                        (      33.824 eV)
    42      42       --         1.243 au  C             1.00      1 D:x2-y2         2
                        (      33.824 eV)
    43      43       --         1.243 au  C             1.00      1 D:xy            2
                        (      33.824 eV)
    44      44       --         1.243 au  C             1.00      1 D:xz            2
                        (      33.824 eV)
    45      45       --         1.243 au  C             1.00      1 D:yz            2
                        (      33.824 eV)
    46      46       --         4.016 au  C             1.00      1 F:z3            2
                        (     109.271 eV)
    47      47       --         4.016 au  C             1.00      1 F:z             2
                        (     109.271 eV)
    48      48       --         4.016 au  C             1.00      1 F:xyz           2
                        (     109.271 eV)
    49      49       --         4.016 au  C             1.00      1 F:z2x           2
                        (     109.271 eV)
    50      50       --         4.016 au  C             1.00      1 F:z2y           2
                        (     109.271 eV)
    51      51       --         4.016 au  C             1.00      1 F:x             2
                        (     109.271 eV)
    52      52       --         4.016 au  C             1.00      1 F:y             2
                        (     109.271 eV)
    53      53      2.000    -488.642 au  Br            1.00      1 S               3
                        (  -13296.634 eV)
    54      54      2.000     -63.585 au  Br            1.00      2 S               3
                        (   -1730.246 eV)
    55      55      2.000      -8.709 au  Br            1.00      3 S               3
                        (    -236.987 eV)
    56      56      2.000      -0.733 au  Br            1.00      4 S               3
                        (     -19.946 eV)
    57      57       --         0.224 au  Br            1.00      5 S               3
                        (       6.099 eV)
    58      58       --         2.414 au  Br            1.00      6 S               3
                        (      65.683 eV)
    59      59       --        13.546 au  Br            1.00      7 S               3
                        (     368.609 eV)
    60      60       --       615.209 au  Br            1.00      8 S               3
                        (   16740.684 eV)
    61      61      2.000     -56.116 au  Br            1.00      1 P:x             3
                        (   -1526.987 eV)
    62      62      2.000      -6.365 au  Br            1.00      2 P:x             3
                        (    -173.205 eV)
    63      63      1.667      -0.284 au  Br            1.00      3 P:x             3
                        (      -7.716 eV)
    64      64       --         0.137 au  Br            1.00      4 P:x             3
                        (       3.720 eV)
    65      65       --         1.208 au  Br            1.00      5 P:x             3
                        (      32.874 eV)
    66      66       --         8.734 au  Br            1.00      6 P:x             3
                        (     237.661 eV)
    67      67       --        95.627 au  Br            1.00      7 P:x             3
                        (    2602.141 eV)
    68      68      2.000     -56.116 au  Br            1.00      1 P:y             3
                        (   -1526.987 eV)
    69      69      2.000      -6.365 au  Br            1.00      2 P:y             3
                        (    -173.205 eV)
    70      70      1.667      -0.284 au  Br            1.00      3 P:y             3
                        (      -7.716 eV)
    71      71       --         0.137 au  Br            1.00      4 P:y             3
                        (       3.720 eV)
    72      72       --         1.208 au  Br            1.00      5 P:y             3
                        (      32.874 eV)
    73      73       --         8.734 au  Br            1.00      6 P:y             3
                        (     237.661 eV)
    74      74       --        95.627 au  Br            1.00      7 P:y             3
                        (    2602.141 eV)
    75      75      2.000     -56.116 au  Br            1.00      1 P:z             3
                        (   -1526.987 eV)
    76      76      2.000      -6.365 au  Br            1.00      2 P:z             3
                        (    -173.205 eV)
    77      77      1.667      -0.284 au  Br            1.00      3 P:z             3
                        (      -7.716 eV)
    78      78       --         0.137 au  Br            1.00      4 P:z             3
                        (       3.720 eV)
    79      79       --         1.208 au  Br            1.00      5 P:z             3
                        (      32.874 eV)
    80      80       --         8.734 au  Br            1.00      6 P:z             3
                        (     237.661 eV)
    81      81       --        95.627 au  Br            1.00      7 P:z             3
                        (    2602.141 eV)
    82      82      2.000      -2.452 au  Br            1.00      1 D:z2            3
                        (     -66.719 eV)
    83      83       --         0.270 au  Br            1.00      2 D:z2            3
                        (       7.341 eV)
    84      84       --         2.706 au  Br            1.00      3 D:z2            3
                        (      73.633 eV)
    85      85       --        20.525 au  Br            1.00      4 D:z2            3
                        (     558.519 eV)
    86      86      2.000      -2.452 au  Br            1.00      1 D:x2-y2         3
                        (     -66.719 eV)
    87      87       --         0.270 au  Br            1.00      2 D:x2-y2         3
                        (       7.341 eV)
    88      88       --         2.706 au  Br            1.00      3 D:x2-y2         3
                        (      73.633 eV)
    89      89       --        20.525 au  Br            1.00      4 D:x2-y2         3
                        (     558.519 eV)
    90      90      2.000      -2.452 au  Br            1.00      1 D:xy            3
                        (     -66.719 eV)
    91      91       --         0.270 au  Br            1.00      2 D:xy            3
                        (       7.341 eV)
    92      92       --         2.706 au  Br            1.00      3 D:xy            3
                        (      73.633 eV)
    93      93       --        20.525 au  Br            1.00      4 D:xy            3
                        (     558.519 eV)
    94      94      2.000      -2.452 au  Br            1.00      1 D:xz            3
                        (     -66.719 eV)
    95      95       --         0.270 au  Br            1.00      2 D:xz            3
                        (       7.341 eV)
    96      96       --         2.706 au  Br            1.00      3 D:xz            3
                        (      73.633 eV)
    97      97       --        20.525 au  Br            1.00      4 D:xz            3
                        (     558.519 eV)
    98      98      2.000      -2.452 au  Br            1.00      1 D:yz            3
                        (     -66.719 eV)
    99      99       --         0.270 au  Br            1.00      2 D:yz            3
                        (       7.341 eV)
   100     100       --         2.706 au  Br            1.00      3 D:yz            3
                        (      73.633 eV)
   101     101       --        20.525 au  Br            1.00      4 D:yz            3
                        (     558.519 eV)
   102     102       --         0.857 au  Br            1.00      1 F:z3            3
                        (      23.313 eV)
   103     103       --         0.857 au  Br            1.00      1 F:z             3
                        (      23.313 eV)
   104     104       --         0.857 au  Br            1.00      1 F:xyz           3
                        (      23.313 eV)
   105     105       --         0.857 au  Br            1.00      1 F:z2x           3
                        (      23.313 eV)
   106     106       --         0.857 au  Br            1.00      1 F:z2y           3
                        (      23.313 eV)
   107     107       --         0.857 au  Br            1.00      1 F:x             3
                        (      23.313 eV)
   108     108       --         0.857 au  Br            1.00      1 F:y             3
                        (      23.313 eV)
   109     109      1.000      -0.240 au  H             1.00      1 S               4
                        (      -6.532 eV)
   110     110       --         0.088 au  H             1.00      2 S               4
                        (       2.394 eV)
   111     111       --         1.502 au  H             1.00      3 S               4
                        (      40.869 eV)
   112     112       --         0.406 au  H             1.00      1 P:x             4
                        (      11.051 eV)
   113     113       --         0.406 au  H             1.00      1 P:y             4
                        (      11.051 eV)
   114     114       --         0.406 au  H             1.00      1 P:z             4
                        (      11.051 eV)
   115     115       --         2.569 au  H             1.00      1 D:z2            4
                        (      69.917 eV)
   116     116       --         2.569 au  H             1.00      1 D:x2-y2         4
                        (      69.917 eV)
   117     117       --         2.569 au  H             1.00      1 D:xy            4
                        (      69.917 eV)
   118     118       --         2.569 au  H             1.00      1 D:xz            4
                        (      69.917 eV)
   119     119       --         2.569 au  H             1.00      1 D:yz            4
                        (      69.917 eV)
   120     120      1.000      -0.240 au  H             1.00      1 S               5
                        (      -6.532 eV)
   121     121       --         0.088 au  H             1.00      2 S               5
                        (       2.394 eV)
   122     122       --         1.502 au  H             1.00      3 S               5
                        (      40.869 eV)
   123     123       --         0.406 au  H             1.00      1 P:x             5
                        (      11.051 eV)
   124     124       --         0.406 au  H             1.00      1 P:y             5
                        (      11.051 eV)
   125     125       --         0.406 au  H             1.00      1 P:z             5
                        (      11.051 eV)
   126     126       --         2.569 au  H             1.00      1 D:z2            5
                        (      69.917 eV)
   127     127       --         2.569 au  H             1.00      1 D:x2-y2         5
                        (      69.917 eV)
   128     128       --         2.569 au  H             1.00      1 D:xy            5
                        (      69.917 eV)
   129     129       --         2.569 au  H             1.00      1 D:xz            5
                        (      69.917 eV)
   130     130       --         2.569 au  H             1.00      1 D:yz            5
                        (      69.917 eV)
   131     131      1.000      -0.240 au  H             1.00      1 S               6
                        (      -6.532 eV)
   132     132       --         0.088 au  H             1.00      2 S               6
                        (       2.394 eV)
   133     133       --         1.502 au  H             1.00      3 S               6
                        (      40.869 eV)
   134     134       --         0.406 au  H             1.00      1 P:x             6
                        (      11.051 eV)
   135     135       --         0.406 au  H             1.00      1 P:y             6
                        (      11.051 eV)
   136     136       --         0.406 au  H             1.00      1 P:z             6
                        (      11.051 eV)
   137     137       --         2.569 au  H             1.00      1 D:z2            6
                        (      69.917 eV)
   138     138       --         2.569 au  H             1.00      1 D:x2-y2         6
                        (      69.917 eV)
   139     139       --         2.569 au  H             1.00      1 D:xy            6
                        (      69.917 eV)
   140     140       --         2.569 au  H             1.00      1 D:xz            6
                        (      69.917 eV)
   141     141       --         2.569 au  H             1.00      1 D:yz            6
                        (      69.917 eV)
   142     142      1.000      -0.240 au  H             1.00      1 S               7
                        (      -6.532 eV)
   143     143       --         0.088 au  H             1.00      2 S               7
                        (       2.394 eV)
   144     144       --         1.502 au  H             1.00      3 S               7
                        (      40.869 eV)
   145     145       --         0.406 au  H             1.00      1 P:x             7
                        (      11.051 eV)
   146     146       --         0.406 au  H             1.00      1 P:y             7
                        (      11.051 eV)
   147     147       --         0.406 au  H             1.00      1 P:z             7
                        (      11.051 eV)
   148     148       --         2.569 au  H             1.00      1 D:z2            7
                        (      69.917 eV)
   149     149       --         2.569 au  H             1.00      1 D:x2-y2         7
                        (      69.917 eV)
   150     150       --         2.569 au  H             1.00      1 D:xy            7
                        (      69.917 eV)
   151     151       --         2.569 au  H             1.00      1 D:xz            7
                        (      69.917 eV)
   152     152       --         2.569 au  H             1.00      1 D:yz            7
                        (      69.917 eV)
   153     153      1.000      -0.240 au  H             1.00      1 S               8
                        (      -6.532 eV)
   154     154       --         0.088 au  H             1.00      2 S               8
                        (       2.394 eV)
   155     155       --         1.502 au  H             1.00      3 S               8
                        (      40.869 eV)
   156     156       --         0.406 au  H             1.00      1 P:x             8
                        (      11.051 eV)
   157     157       --         0.406 au  H             1.00      1 P:y             8
                        (      11.051 eV)
   158     158       --         0.406 au  H             1.00      1 P:z             8
                        (      11.051 eV)
   159     159       --         2.569 au  H             1.00      1 D:z2            8
                        (      69.917 eV)
   160     160       --         2.569 au  H             1.00      1 D:x2-y2         8
                        (      69.917 eV)
   161     161       --         2.569 au  H             1.00      1 D:xy            8
                        (      69.917 eV)
   162     162       --         2.569 au  H             1.00      1 D:xz            8
                        (      69.917 eV)
   163     163       --         2.569 au  H             1.00      1 D:yz            8
                        (      69.917 eV)
   164     164      1.000      -0.240 au  H             1.00      1 S               9
                        (      -6.532 eV)
   165     165       --         0.088 au  H             1.00      2 S               9
                        (       2.394 eV)
   166     166       --         1.502 au  H             1.00      3 S               9
                        (      40.869 eV)
   167     167       --         0.406 au  H             1.00      1 P:x             9
                        (      11.051 eV)
   168     168       --         0.406 au  H             1.00      1 P:y             9
                        (      11.051 eV)
   169     169       --         0.406 au  H             1.00      1 P:z             9
                        (      11.051 eV)
   170     170       --         2.569 au  H             1.00      1 D:z2            9
                        (      69.917 eV)
   171     171       --         2.569 au  H             1.00      1 D:x2-y2         9
                        (      69.917 eV)
   172     172       --         2.569 au  H             1.00      1 D:xy            9
                        (      69.917 eV)
   173     173       --         2.569 au  H             1.00      1 D:xz            9
                        (      69.917 eV)
   174     174       --         2.569 au  H             1.00      1 D:yz            9
                        (      69.917 eV)
   175     175      2.000     -14.160 au  N             1.00      1 S              10
                        (    -385.319 eV)
   176     176      2.000      -0.678 au  N             1.00      2 S              10
                        (     -18.450 eV)
   177     177       --         0.517 au  N             1.00      3 S              10
                        (      14.073 eV)
   178     178       --         6.872 au  N             1.00      4 S              10
                        (     186.990 eV)
   179     179       --        63.432 au  N             1.00      5 S              10
                        (    1726.082 eV)
   180     180      1.000      -0.260 au  N             1.00      1 P:x            10
                        (      -7.062 eV)
   181     181       --         0.281 au  N             1.00      2 P:x            10
                        (       7.649 eV)
   182     182       --         3.275 au  N             1.00      3 P:x            10
                        (      89.105 eV)
   183     183      1.000      -0.260 au  N             1.00      1 P:y            10
                        (      -7.062 eV)
   184     184       --         0.281 au  N             1.00      2 P:y            10
                        (       7.649 eV)
   185     185       --         3.275 au  N             1.00      3 P:y            10
                        (      89.105 eV)
   186     186      1.000      -0.260 au  N             1.00      1 P:z            10
                        (      -7.062 eV)
   187     187       --         0.281 au  N             1.00      2 P:z            10
                        (       7.649 eV)
   188     188       --         3.275 au  N             1.00      3 P:z            10
                        (      89.105 eV)
   189     189       --         1.250 au  N             1.00      1 D:z2           10
                        (      34.005 eV)
   190     190       --         1.250 au  N             1.00      1 D:x2-y2        10
                        (      34.005 eV)
   191     191       --         1.250 au  N             1.00      1 D:xy           10
                        (      34.005 eV)
   192     192       --         1.250 au  N             1.00      1 D:xz           10
                        (      34.005 eV)
   193     193       --         1.250 au  N             1.00      1 D:yz           10
                        (      34.005 eV)
   194     194       --         4.013 au  N             1.00      1 F:z3           10
                        (     109.190 eV)
   195     195       --         4.013 au  N             1.00      1 F:z            10
                        (     109.190 eV)
   196     196       --         4.013 au  N             1.00      1 F:xyz          10
                        (     109.190 eV)
   197     197       --         4.013 au  N             1.00      1 F:z2x          10
                        (     109.190 eV)
   198     198       --         4.013 au  N             1.00      1 F:z2y          10
                        (     109.190 eV)
   199     199       --         4.013 au  N             1.00      1 F:x            10
                        (     109.190 eV)
   200     200       --         4.013 au  N             1.00      1 F:y            10
                        (     109.190 eV)
   201     201      2.000     -14.160 au  N             1.00      1 S              11
                        (    -385.319 eV)
   202     202      2.000      -0.678 au  N             1.00      2 S              11
                        (     -18.450 eV)
   203     203       --         0.517 au  N             1.00      3 S              11
                        (      14.073 eV)
   204     204       --         6.872 au  N             1.00      4 S              11
                        (     186.990 eV)
   205     205       --        63.432 au  N             1.00      5 S              11
                        (    1726.082 eV)
   206     206      1.000      -0.260 au  N             1.00      1 P:x            11
                        (      -7.062 eV)
   207     207       --         0.281 au  N             1.00      2 P:x            11
                        (       7.649 eV)
   208     208       --         3.275 au  N             1.00      3 P:x            11
                        (      89.105 eV)
   209     209      1.000      -0.260 au  N             1.00      1 P:y            11
                        (      -7.062 eV)
   210     210       --         0.281 au  N             1.00      2 P:y            11
                        (       7.649 eV)
   211     211       --         3.275 au  N             1.00      3 P:y            11
                        (      89.105 eV)
   212     212      1.000      -0.260 au  N             1.00      1 P:z            11
                        (      -7.062 eV)
   213     213       --         0.281 au  N             1.00      2 P:z            11
                        (       7.649 eV)
   214     214       --         3.275 au  N             1.00      3 P:z            11
                        (      89.105 eV)
   215     215       --         1.250 au  N             1.00      1 D:z2           11
                        (      34.005 eV)
   216     216       --         1.250 au  N             1.00      1 D:x2-y2        11
                        (      34.005 eV)
   217     217       --         1.250 au  N             1.00      1 D:xy           11
                        (      34.005 eV)
   218     218       --         1.250 au  N             1.00      1 D:xz           11
                        (      34.005 eV)
   219     219       --         1.250 au  N             1.00      1 D:yz           11
                        (      34.005 eV)
   220     220       --         4.013 au  N             1.00      1 F:z3           11
                        (     109.190 eV)
   221     221       --         4.013 au  N             1.00      1 F:z            11
                        (     109.190 eV)
   222     222       --         4.013 au  N             1.00      1 F:xyz          11
                        (     109.190 eV)
   223     223       --         4.013 au  N             1.00      1 F:z2x          11
                        (     109.190 eV)
   224     224       --         4.013 au  N             1.00      1 F:z2y          11
                        (     109.190 eV)
   225     225       --         4.013 au  N             1.00      1 F:x            11
                        (     109.190 eV)
   226     226       --         4.013 au  N             1.00      1 F:y            11
                        (     109.190 eV)



 ================================
 (Slater-type)  F U N C T I O N S  ***  (Basis and Fit)  ***
 ================================
  

 Atom Type    1  (C)
 ==============

 Valence Basis Sets:  10
 -----------------------
   1 S    7.680000
   1 S    5.000000
   2 S    1.280000
   2 S    2.100000
   2 S    4.600000
   2 P    0.820000
   2 P    1.480000
   2 P    2.940000
   3 D    2.200000
   4 F    3.300000

 Atom Type    2  (Br)
 ==============

 Valence Basis Sets:  20
 -----------------------
   1 S   41.300000
   1 S   32.800000
   2 S   13.900000
   2 P   19.450000
   2 P   13.100000
   3 S    7.200000
   3 S    4.950000
   3 P    7.900000
   3 P    5.050000
   3 D   10.900000
   3 D    6.050000
   3 D    3.500000
   4 S    4.500000
   4 S    2.800000
   4 S    1.800000
   4 P    3.250000
   4 P    1.950000
   4 P    1.200000
   4 D    1.800000
   4 F    1.800000

 Atom Type    3  (H)
 ==============

 Valence Basis Sets:   5
 -----------------------
   1 S    0.690000
   1 S    0.920000
   1 S    1.580000
   2 P    1.250000
   3 D    2.500000

 Atom Type    4  (N)
 ==============

 Valence Basis Sets:  10
 -----------------------
   1 S    8.740000
   1 S    5.900000
   2 S    5.150000
   2 S    2.500000
   2 S    1.500000
   2 P    3.680000
   2 P    1.880000
   2 P    1.000000
   3 D    2.200000
   4 F    3.300000


 BAS: List of all Elementary Cartesian Basis Functions
 =====================================================

 The numbering in the list below (to the right of the function characteristics) is referred
 to in print-outs of MO eigenvectors and Mulliken populations in the BAS representation
 (as contrasted to the SFO representation).

 Notes:
 1. The functions are characterized by a polynomial prefactor (powers of x,y,z and r) and
    an exponential decay factor alpha.
 2. Since the basis sets are specific for an atom TYPE, the individual functions occur on
    all atoms of that type.
 3. The word 'Core' in the left margin signals that it is a Core Function (CF) : not a
    degree of freedom in the valence set, but only used to ensure orthogonalization of
    the other valence basis functions on the frozen Core Orbitals.


 (power of) X  Y  Z  R     Alpha  on Atom
            ==========     =====     ==========

 C                                    1    2
                                  ---------------------------------------------------------------------------
            0  0  0  0     7.680      1   31
            0  0  0  0     5.000      2   32
            0  0  0  1     1.280      3   33
            0  0  0  1     2.100      4   34
            0  0  0  1     4.600      5   35
            1  0  0  0     0.820      6   36
            0  1  0  0     0.820      7   37
            0  0  1  0     0.820      8   38
            1  0  0  0     1.480      9   39
            0  1  0  0     1.480     10   40
            0  0  1  0     1.480     11   41
            1  0  0  0     2.940     12   42
            0  1  0  0     2.940     13   43
            0  0  1  0     2.940     14   44
            2  0  0  0     2.200     15   45
            1  1  0  0     2.200     16   46
            1  0  1  0     2.200     17   47
            0  2  0  0     2.200     18   48
            0  1  1  0     2.200     19   49
            0  0  2  0     2.200     20   50
            3  0  0  0     3.300     21   51
            2  1  0  0     3.300     22   52
            2  0  1  0     3.300     23   53
            1  2  0  0     3.300     24   54
            1  1  1  0     3.300     25   55
            1  0  2  0     3.300     26   56
            0  3  0  0     3.300     27   57
            0  2  1  0     3.300     28   58
            0  1  2  0     3.300     29   59
            0  0  3  0     3.300     30   60

 Br                                   3
                                  ---------------------------------------------------------------------------
            0  0  0  0    41.300     61
            0  0  0  0    32.800     62
            0  0  0  1    13.900     63
            1  0  0  0    19.450     64
            0  1  0  0    19.450     65
            0  0  1  0    19.450     66
            1  0  0  0    13.100     67
            0  1  0  0    13.100     68
            0  0  1  0    13.100     69
            0  0  0  2     7.200     70
            0  0  0  2     4.950     71
            1  0  0  1     7.900     72
            0  1  0  1     7.900     73
            0  0  1  1     7.900     74
            1  0  0  1     5.050     75
            0  1  0  1     5.050     76
            0  0  1  1     5.050     77
            2  0  0  0    10.900     78
            1  1  0  0    10.900     79
            1  0  1  0    10.900     80
            0  2  0  0    10.900     81
            0  1  1  0    10.900     82
            0  0  2  0    10.900     83
            2  0  0  0     6.050     84
            1  1  0  0     6.050     85
            1  0  1  0     6.050     86
            0  2  0  0     6.050     87
            0  1  1  0     6.050     88
            0  0  2  0     6.050     89
            2  0  0  0     3.500     90
            1  1  0  0     3.500     91
            1  0  1  0     3.500     92
            0  2  0  0     3.500     93
            0  1  1  0     3.500     94
            0  0  2  0     3.500     95
            0  0  0  3     4.500     96
            0  0  0  3     2.800     97
            0  0  0  3     1.800     98
            1  0  0  2     3.250     99
            0  1  0  2     3.250    100
            0  0  1  2     3.250    101
            1  0  0  2     1.950    102
            0  1  0  2     1.950    103
            0  0  1  2     1.950    104
            1  0  0  2     1.200    105
            0  1  0  2     1.200    106
            0  0  1  2     1.200    107
            2  0  0  1     1.800    108
            1  1  0  1     1.800    109
            1  0  1  1     1.800    110
            0  2  0  1     1.800    111
            0  1  1  1     1.800    112
            0  0  2  1     1.800    113
            3  0  0  0     1.800    114
            2  1  0  0     1.800    115
            2  0  1  0     1.800    116
            1  2  0  0     1.800    117
            1  1  1  0     1.800    118
            1  0  2  0     1.800    119
            0  3  0  0     1.800    120
            0  2  1  0     1.800    121
            0  1  2  0     1.800    122
            0  0  3  0     1.800    123

 H                                    4    5    6    7    8    9
                                  ---------------------------------------------------------------------------
            0  0  0  0     0.690    124  136  148  160  172  184
            0  0  0  0     0.920    125  137  149  161  173  185
            0  0  0  0     1.580    126  138  150  162  174  186
            1  0  0  0     1.250    127  139  151  163  175  187
            0  1  0  0     1.250    128  140  152  164  176  188
            0  0  1  0     1.250    129  141  153  165  177  189
            2  0  0  0     2.500    130  142  154  166  178  190
            1  1  0  0     2.500    131  143  155  167  179  191
            1  0  1  0     2.500    132  144  156  168  180  192
            0  2  0  0     2.500    133  145  157  169  181  193
            0  1  1  0     2.500    134  146  158  170  182  194
            0  0  2  0     2.500    135  147  159  171  183  195

 N                                   10   11
                                  ---------------------------------------------------------------------------
            0  0  0  0     8.740    196  226
            0  0  0  0     5.900    197  227
            0  0  0  1     5.150    198  228
            0  0  0  1     2.500    199  229
            0  0  0  1     1.500    200  230
            1  0  0  0     3.680    201  231
            0  1  0  0     3.680    202  232
            0  0  1  0     3.680    203  233
            1  0  0  0     1.880    204  234
            0  1  0  0     1.880    205  235
            0  0  1  0     1.880    206  236
            1  0  0  0     1.000    207  237
            0  1  0  0     1.000    208  238
            0  0  1  0     1.000    209  239
            2  0  0  0     2.200    210  240
            1  1  0  0     2.200    211  241
            1  0  1  0     2.200    212  242
            0  2  0  0     2.200    213  243
            0  1  1  0     2.200    214  244
            0  0  2  0     2.200    215  245
            3  0  0  0     3.300    216  246
            2  1  0  0     3.300    217  247
            2  0  1  0     3.300    218  248
            1  2  0  0     3.300    219  249
            1  1  1  0     3.300    220  250
            1  0  2  0     3.300    221  251
            0  3  0  0     3.300    222  252
            0  2  1  0     3.300    223  253
            0  1  2  0     3.300    224  254
            0  0  3  0     3.300    225  255

 Total number of charge fitting functions (nprimf)       806
 Total number of Cartesian basis functions (naos)        255
 Total number of Cartesian core functions  (ncos)          0

 ***************************************************************************************************



                                              ***********************
                                              *  T E C H N I C A L  *
                                              ***********************
  



 =============================================================
 P A R A L L E L I Z A T I O N  and  V E C T O R I Z A T I O N
 =============================================================
  
 Nr of parallel processes:                                1
 Maximum vector length in NumInt loops:                 128



 =====================
 S C F   U P D A T E S
 =====================
  
 Max. nr. of cycles:                               200
 Convergence criterion:                              0.0000010000
   secondary criterion:                              0.0010000000

 Mix parameter (when DIIS does not apply):           0.2000000000
 Mixed ADIIS+SDIIS will be used                  
    Max number of expansion vectors:                10
    Pure ADIIS when Max([F,P]) is above              0.1000000000
    Pure SDIIS when Max([F,P]) is below              0.0010000000
 Automatic ElectronSmearing (in case of problematic SCF convergence) disabled



 =================
 P R E C I S I O N  ***  (General: NumInt, NeglectFunctionTails, ...)  ***
 =================
  

 NumInt:           Target precision:                 4.0000000000
 -------           Initial precision:                4.0000000000
                   Min. precision (optimization):    4.0000000000

 Neglect Functions:          Basis functions:        0.1000000000E-05
 ------------------          Fit functions:          0.1000000000E-05



 ===========================
 L I N E A R   S C A L I N G
 ===========================
  

 Cut-off radii density fit:                        0.1000000000E-07
 Overlap cut-off criterion AO matrix elements:     0.1000000000E-05
 Cut-offs for Coulomb potential and fitted density:0.1000000000E-07
 Cut-off criterion for Coulomb multipole terms:    0.1000000000E-07
 Progressive Convergence parameter:                 0.000000000    
 ***************************************************************************************************



                                            ***************************
                                            *  C O M P U T A T I O N  *
                                            ***************************
  

 Number of elements of the density matrix on this node (used, total):     32640     32640



 ===========================================
 Numerical Integration : Fuzzy Cells (Becke)
 ===========================================
  
 Becke grid quality: NORMAL         
  
 Lebedev angular grid order:             min:  11 max:  23
 Nr. of radial points:                   min:  46 max:  77

 Total nr. of points:      74339
 Nr. of blocks:              581
 Block length:               128
 Nr. of dummy points:         29


 Test of Precision of the Numerical Integration Grid
 ===================================================

 Integral of the Total Core Density:                   0.00000000000000



 ========================
 Density Fitting (zlmFit)
 ========================
  
 ZlmFit Fit Quality: NORMAL         
  
 Max L-expansion:                        min:   6 max:   7
 Nr. of radial interpolation points:     min:  39 max:  72



 =====
 S C F  ***  ScaSCF  ***
 =====
  
 Initial density matrix is calculated as sum of fragments

 CYCLE    1
 SCF Error: norm([F,P])=      5.218067927892, max([F,P])=      1.259585578222
 orbitals (Q,E):
 ---------------
 A :24...44          ( 2.00    -0.6199)  ( 2.00    -0.6062)  ( 2.00    -0.5965)  ( 2.00    -0.5725)
                     ( 2.00    -0.5028)  ( 2.00    -0.4426)  ( 2.00    -0.3995)  ( 2.00    -0.3850)
                     ( 2.00    -0.2956)  ( 2.00    -0.2927)  ( 1.00    -0.2822)  ( 0.00    -0.1596)
                     ( 0.00    -0.0622)  ( 0.00    -0.0582)  ( 0.00    -0.0355)  ( 0.00    -0.0058)
                     ( 0.00     0.0067)  ( 0.00     0.0081)  ( 0.00     0.0229)  ( 0.00     0.0737)
                     ( 0.00     0.0912)

 CYCLE    2
   MIX coefficients:  0.8000  0.2000
 SCF Error: norm([F,P])=      1.142686336619, max([F,P])=      0.258738158426
 orbitals (Q,E):
 ---------------
 A :24...35          ( 2.00    -0.5483)  ( 2.00    -0.5320)  ( 2.00    -0.5193)  ( 2.00    -0.5018)
                     ( 2.00    -0.4387)  ( 2.00    -0.3805)  ( 2.00    -0.3320)  ( 2.00    -0.3129)
                     ( 2.00    -0.2938)  ( 2.00    -0.2902)  ( 1.00    -0.2484)  ( 0.00    -0.1207)

 CYCLE    3
  SDIIS (wt  0.000): -0.5131  1.5131
 A-DIIS (wt  1.000):  0.0000  1.0000
  DIIS coefficients:  0.0000  1.0000
 SCF Error: norm([F,P])=      0.505420829321, max([F,P])=      0.125632881941
 orbitals (Q,E):
 ---------------
 A :24...35          ( 2.00    -0.4100)  ( 2.00    -0.3897)  ( 2.00    -0.3753)  ( 2.00    -0.3618)
                     ( 2.00    -0.3146)  ( 2.00    -0.2713)  ( 2.00    -0.1999)  ( 2.00    -0.1986)
                     ( 2.00    -0.1799)  ( 2.00    -0.1586)  ( 1.00    -0.1395)  ( 0.00    -0.0297)

 CYCLE    4
  SDIIS (wt  0.000): -0.1048  0.8485  0.2563
 A-DIIS (wt  1.000): -0.0000  0.8165  0.1835
  DIIS coefficients: -0.0000  0.8165  0.1835
 SCF Error: norm([F,P])=      1.171341929627, max([F,P])=      0.298103389595
 orbitals (Q,E):
 ---------------
 A :24...35          ( 2.00    -0.4526)  ( 2.00    -0.4324)  ( 2.00    -0.4097)  ( 2.00    -0.3950)
                     ( 2.00    -0.3350)  ( 2.00    -0.2890)  ( 2.00    -0.2281)  ( 2.00    -0.2102)
                     ( 2.00    -0.2018)  ( 2.00    -0.1920)  ( 1.00    -0.1652)  ( 0.00    -0.0404)

 CYCLE    5
  SDIIS (wt  0.278):  0.0076  0.4502  0.1018  0.4405
 A-DIIS (wt  0.722):  0.0000  0.2804  0.0000  0.7196
  DIIS coefficients:  0.0021  0.3276  0.0283  0.6420
 SCF Error: norm([F,P])=      0.325540626874, max([F,P])=      0.072448135662
 orbitals (Q,E):
 ---------------
 A :24...35          ( 2.00    -0.4858)  ( 2.00    -0.4641)  ( 2.00    -0.4572)  ( 2.00    -0.4380)
                     ( 2.00    -0.3782)  ( 2.00    -0.3321)  ( 2.00    -0.2654)  ( 2.00    -0.2515)
                     ( 2.00    -0.2469)  ( 2.00    -0.2311)  ( 1.00    -0.2182)  ( 0.00    -0.0828)

 CYCLE    6
  SDIIS (wt  0.641): -0.0076  0.1769 -0.0038  0.3897  0.4448
 A-DIIS (wt  0.359):  0.0000  0.0000  0.0000  0.1659  0.8341
  DIIS coefficients: -0.0049  0.1134 -0.0024  0.3094  0.5845
 SCF Error: norm([F,P])=      0.163277229028, max([F,P])=      0.036535653586
 orbitals (Q,E):
 ---------------
 A :24...35          ( 2.00    -0.4759)  ( 2.00    -0.4562)  ( 2.00    -0.4405)  ( 2.00    -0.4237)
                     ( 2.00    -0.3627)  ( 2.00    -0.3192)  ( 2.00    -0.2561)  ( 2.00    -0.2415)
                     ( 2.00    -0.2363)  ( 2.00    -0.2220)  ( 1.00    -0.1954)  ( 0.00    -0.0677)

 CYCLE    7
  SDIIS (wt  0.824):  0.0226  0.0331  0.0080  0.1893  0.3490  0.3980
 A-DIIS (wt  0.176):  0.0000  0.0000  0.0000  0.0000  0.2781  0.7219
  DIIS coefficients:  0.0186  0.0273  0.0066  0.1561  0.3366  0.4548
 SCF Error: norm([F,P])=      0.079446337327, max([F,P])=      0.018381060476
 orbitals (Q,E):
 ---------------
 A :24...35          ( 2.00    -0.4789)  ( 2.00    -0.4574)  ( 2.00    -0.4455)  ( 2.00    -0.4278)
                     ( 2.00    -0.3676)  ( 2.00    -0.3204)  ( 2.00    -0.2576)  ( 2.00    -0.2401)
                     ( 2.00    -0.2337)  ( 2.00    -0.2223)  ( 1.00    -0.2010)  ( 0.00    -0.0699)

 CYCLE    8
  SDIIS (wt  0.964):  0.0025  0.0163  0.0025  0.0682  0.1910  0.2997  0.4197
 A-DIIS (wt  0.036):  0.0000  0.0000  0.0000  0.0000  0.0000  0.1208  0.8792
  DIIS coefficients:  0.0024  0.0157  0.0024  0.0657  0.1841  0.2932  0.4364
 SCF Error: norm([F,P])=      0.023517928368, max([F,P])=      0.004609214509
 orbitals (Q,E):
 ---------------
 A :24...35          ( 2.00    -0.4782)  ( 2.00    -0.4575)  ( 2.00    -0.4449)  ( 2.00    -0.4274)
                     ( 2.00    -0.3672)  ( 2.00    -0.3209)  ( 2.00    -0.2573)  ( 2.00    -0.2413)
                     ( 2.00    -0.2353)  ( 2.00    -0.2228)  ( 1.00    -0.2009)  ( 0.00    -0.0703)

 CYCLE    9
  SDIIS (wt  0.999): -0.0031  0.0077  0.0004  0.0166  0.0752  0.1336  0.2916  0.4780
 A-DIIS (wt  0.001):  0.0000  0.0000  0.0000  0.0000  0.0000  0.0000  0.0000  1.0000
  DIIS coefficients: -0.0031  0.0077  0.0004  0.0166  0.0752  0.1335  0.2914  0.4783
 SCF Error: norm([F,P])=      0.004656999091, max([F,P])=      0.001049558327
 orbitals (Q,E):
 ---------------
 A :24...35          ( 2.00    -0.4782)  ( 2.00    -0.4571)  ( 2.00    -0.4448)  ( 2.00    -0.4273)
                     ( 2.00    -0.3670)  ( 2.00    -0.3209)  ( 2.00    -0.2573)  ( 2.00    -0.2412)
                     ( 2.00    -0.2354)  ( 2.00    -0.2226)  ( 1.00    -0.2008)  ( 0.00    -0.0703)

 CYCLE   10
  SDIIS (wt  1.000): -0.0013  0.0024  0.0004  0.0038  0.0254  0.0483  0.1081  0.2340  0.5789
  DIIS coefficients: -0.0013  0.0024  0.0004  0.0038  0.0254  0.0483  0.1081  0.2340  0.5789
 SCF Error: norm([F,P])=      0.000979484629, max([F,P])=      0.000192494552
 orbitals (Q,E):
 ---------------
 A :24...35          ( 2.00    -0.4782)  ( 2.00    -0.4572)  ( 2.00    -0.4448)  ( 2.00    -0.4273)
                     ( 2.00    -0.3670)  ( 2.00    -0.3208)  ( 2.00    -0.2572)  ( 2.00    -0.2412)
                     ( 2.00    -0.2354)  ( 2.00    -0.2226)  ( 1.00    -0.2009)  ( 0.00    -0.0702)

 CYCLE   11
  SDIIS (wt  1.000): -0.0003  0.0001  0.0002 -0.0000  0.0063  0.0135  0.0301  0.0892  0.4293  0.4315
  DIIS coefficients: -0.0003  0.0001  0.0002 -0.0000  0.0063  0.0135  0.0301  0.0892  0.4293  0.4315
 SCF Error: norm([F,P])=      0.000688498774, max([F,P])=      0.000167116083
 orbitals (Q,E):
 ---------------
 A :24...35          ( 2.00    -0.4782)  ( 2.00    -0.4572)  ( 2.00    -0.4448)  ( 2.00    -0.4273)
                     ( 2.00    -0.3670)  ( 2.00    -0.3209)  ( 2.00    -0.2573)  ( 2.00    -0.2413)
                     ( 2.00    -0.2354)  ( 2.00    -0.2226)  ( 1.00    -0.2009)  ( 0.00    -0.0703)

 CYCLE   12
  SDIIS (wt  1.000): -0.0002  0.0001 -0.0004 -0.0003 -0.0007  0.0003  0.0090  0.1054  0.1591  0.7277
  DIIS coefficients: -0.0002  0.0001 -0.0004 -0.0003 -0.0007  0.0003  0.0090  0.1054  0.1591  0.7277
 SCF Error: norm([F,P])=      0.000152806062, max([F,P])=      0.000027783059
 orbitals (Q,E):
 ---------------
 A :24...35          ( 2.00    -0.4782)  ( 2.00    -0.4572)  ( 2.00    -0.4448)  ( 2.00    -0.4273)
                     ( 2.00    -0.3670)  ( 2.00    -0.3209)  ( 2.00    -0.2573)  ( 2.00    -0.2412)
                     ( 2.00    -0.2354)  ( 2.00    -0.2226)  ( 1.00    -0.2009)  ( 0.00    -0.0703)

 CYCLE   13
  SDIIS (wt  1.000):  0.0000  0.0000 -0.0001 -0.0007 -0.0011 -0.0024  0.0129  0.0247  0.2569  0.7097
  DIIS coefficients:  0.0000  0.0000 -0.0001 -0.0007 -0.0011 -0.0024  0.0129  0.0247  0.2569  0.7097
 SCF Error: norm([F,P])=      0.000042873532, max([F,P])=      0.000011491726
 orbitals (Q,E):
 ---------------
 A :24...35          ( 2.00    -0.4782)  ( 2.00    -0.4572)  ( 2.00    -0.4448)  ( 2.00    -0.4273)
                     ( 2.00    -0.3670)  ( 2.00    -0.3209)  ( 2.00    -0.2573)  ( 2.00    -0.2412)
                     ( 2.00    -0.2354)  ( 2.00    -0.2226)  ( 1.00    -0.2009)  ( 0.00    -0.0703)

 CYCLE   14
  SDIIS (wt  1.000):  0.0000 -0.0001 -0.0003 -0.0007 -0.0027 -0.0058 -0.0100  0.0089  0.2839  0.7267
  DIIS coefficients:  0.0000 -0.0001 -0.0003 -0.0007 -0.0027 -0.0058 -0.0100  0.0089  0.2839  0.7267
 SCF Error: norm([F,P])=      0.000012627443, max([F,P])=      0.000003269489
 orbitals (Q,E):
 ---------------
 A :24...35          ( 2.00    -0.4782)  ( 2.00    -0.4572)  ( 2.00    -0.4448)  ( 2.00    -0.4273)
                     ( 2.00    -0.3670)  ( 2.00    -0.3209)  ( 2.00    -0.2573)  ( 2.00    -0.2412)
                     ( 2.00    -0.2354)  ( 2.00    -0.2226)  ( 1.00    -0.2009)  ( 0.00    -0.0703)

 CYCLE   15
  SDIIS (wt  1.000): -0.0000 -0.0001 -0.0002 -0.0005 -0.0012 -0.0024  0.0005  0.0752  0.2419  0.6869
  DIIS coefficients: -0.0000 -0.0001 -0.0002 -0.0005 -0.0012 -0.0024  0.0005  0.0752  0.2419  0.6869
 SCF Error: norm([F,P])=      0.000002464834, max([F,P])=      0.000000555362
 orbitals (Q,E):
 ---------------
 A :24...35          ( 2.00    -0.4782)  ( 2.00    -0.4572)  ( 2.00    -0.4448)  ( 2.00    -0.4273)
                     ( 2.00    -0.3670)  ( 2.00    -0.3209)  ( 2.00    -0.2573)  ( 2.00    -0.2412)
                     ( 2.00    -0.2354)  ( 2.00    -0.2226)  ( 1.00    -0.2009)  ( 0.00    -0.0703)

 SCF CONVERGED

 CYCLE   16
 ***************************************************************************************************



                                                *******************
                                                *  R E S U L T S  *
                                                *******************
  
 *** Using FIT density in Focky
  SDIIS (wt  1.000): -0.0000 -0.0000 -0.0000 -0.0001 -0.0003 -0.0006  0.0108  0.0507  0.2549  0.6845
  DIIS coefficients: -0.0000 -0.0000 -0.0000 -0.0001 -0.0003 -0.0006  0.0108  0.0507  0.2549  0.6845
 SCF Error: norm([F,P])=      0.000000471712, max([F,P])=      0.000000091754

 Scaled ZORA Orbital Energies, per Irrep and Spin:
 =================================================
                        Occup              E (au)              E (eV)       Diff (eV) with prev. cycle
                        -----      --------------------        ------       --------------------------
 A
              24        2.000     -0.47818148365249E+00       -13.012              -3.75E-07
              25        2.000     -0.45716513170924E+00       -12.440              -7.32E-07
              26        2.000     -0.44482744575685E+00       -12.104              -5.62E-07
              27        2.000     -0.42727301875662E+00       -11.627              -7.38E-07
              28        2.000     -0.36703944178661E+00        -9.988              -1.06E-06
              29        2.000     -0.32086828297399E+00        -8.731              -4.56E-07
              30        2.000     -0.25725493438802E+00        -7.000              -2.73E-07
              31        2.000     -0.24124532442184E+00        -6.565              -2.60E-07
              32        2.000     -0.23543282377081E+00        -6.406              -6.95E-10
              33        2.000     -0.22261151138204E+00        -6.058              -4.94E-07
              34        1.000     -0.20088752506108E+00        -5.466              -3.40E-08
              35        0.000     -0.70292221569298E-01        -1.913
              36        0.000     -0.21288619014436E-01        -0.579
              37        0.000     -0.14645624569397E-01        -0.399
              38        0.000      0.93678294908970E-02         0.255
              39        0.000      0.41700579550214E-01         1.135
              40        0.000      0.51744223530070E-01         1.408
              41        0.000      0.58143484792492E-01         1.582
              42        0.000      0.13431317547345E+00         3.655
              43        0.000      0.14178270347344E+00         3.858
              44        0.000      0.14517188243664E+00         3.950


 Partially Occupied:
              34 A                -0.20088752506108E+00
  
 HOMO :       33 A                -0.22261151138204E+00
 LUMO :       35 A                -0.70292221569298E-01
  


 All Electron Calculation, thus no Orbital Energies of the Core Orbitals are calculated

 Integrated fractional orbital density (NFOD):         1.000


 Fit test: (difference of exact and fit density, squared integrated, result summed over spins)
         Sum-of-Fragments:                             0.00000000372228
         Orthogonalized Fragments:                     0.00101810684661
         SCF:                                          0.00110137786661



 ==========================
 Electron Density at Nuclei
 ==========================
  
 The electron density is calculated at points on a small sphere around the center of a nucleus.
 The printed electron density is the average electron density on these points.
 The radius of the sphere is the printed approximate finite nuclear radius.
 Note: ZORA-4 density is used, which includes small component density

         Atom        Nuclear Radius (Angstrom)             Electron Density (a.u.)
         ----        -------------------------             -----------------------
     1)   C                 0.0000320678                              127.20336
     2)   C                 0.0000320678                              127.20878
     3)   Br                0.0000536685                            33513.02280
     4)   H                 0.0000181514                                0.51501
     5)   H                 0.0000181514                                0.50861
     6)   N                 0.0000333706                              206.06825
     7)   H                 0.0000181514                                0.50606
     8)   H                 0.0000181514                                0.49739
     9)   N                 0.0000333706                              205.98481
    10)   H                 0.0000181514                                0.50535
    11)   H                 0.0000181514                                0.48826



 =======================================
 M U L L I K E N   P O P U L A T I O N S
 =======================================
  
 The survey below gives for each atom:
 a) the total charge (Z minus electrons)
 b) the net spin polarization (nr of electrons spin-A minus spin-B)
 c) for each spin the atomic electron valence density (integrated) per L-value.

 Atom              Charge    Spin density          S         P         D         F
 ----              ------    ------------       ------    ------    ------    ------
 1 C               0.4649                       3.0500    2.3899    0.0899    0.0053
 2 C               0.2817                       3.1304    2.5085    0.0745    0.0050
 3 Br             -0.3097                       7.9951   17.2678   10.0367    0.0101
 4 H              -0.1279                       1.0465    0.0755    0.0059    0.0000
 5 H              -0.1404                       1.0643    0.0706    0.0055    0.0000
 6 N              -0.0176                       3.3889    3.5774    0.0482    0.0031
 7 H              -0.0304                       0.9047    0.1161    0.0096    0.0000
 8 H              -0.0321                       0.9042    0.1183    0.0097    0.0000
 9 N              -0.0444                       3.3692    3.6285    0.0438    0.0030
 10 H             -0.0305                       0.9019    0.1192    0.0094    0.0000
 11 H             -0.0134                       0.8785    0.1252    0.0098    0.0000

 Populations of individual BAS functions
 ----------------------------------------
 1 C            0.5060  1.4835  0.1909  0.9077 -0.0381 -0.0067 -0.1652 -0.1736  0.6528  0.7855
                0.7765  0.1403  0.1927  0.1876  0.0006  0.0133  0.0172  0.0144  0.0215  0.0228
               -0.0028 -0.0005 -0.0020  0.0014  0.0007  0.0028  0.0008 -0.0004  0.0015  0.0037
 2 C            0.5046  1.4840  0.2962  0.8787 -0.0332  0.1379 -0.1245 -0.1101  0.5907  0.7481
                0.7407  0.1513  0.1873  0.1871 -0.0060  0.0117  0.0109  0.0160  0.0195  0.0225
               -0.0037 -0.0009 -0.0027  0.0020  0.0007  0.0030  0.0012 -0.0003  0.0014  0.0043
 3 Br           0.7968  1.1334  2.0967  0.8032  0.8036  0.8034  1.1703  1.1697  1.1700  1.6448
                0.2364  1.1638  1.1729  1.1684  0.8711  0.8628  0.8671  0.2684  0.4024  0.4024
                0.2682  0.4025  0.2682  0.7648  1.1483  1.1480  0.7663  1.1489  0.7657  0.3016
                0.4493  0.4499  0.2975  0.4485  0.2994  0.4405  1.2490  0.3976  0.5095  0.6452
                0.5758  0.8271  1.0186  0.9283  0.1834  0.3014  0.2520  0.0183  0.0053  0.0144
               -0.0061  0.0022  0.0024  0.0143  0.0083  0.0102 -0.0095  0.0007 -0.0014 -0.0095
               -0.0053  0.0030 -0.0008
 4 H            0.0813  0.6447  0.3205  0.0214  0.0302  0.0239 -0.0040  0.0012  0.0006  0.0097
                0.0015 -0.0031
 5 H            0.0910  0.6513  0.3220  0.0208  0.0294  0.0203 -0.0044  0.0013  0.0004  0.0097
                0.0015 -0.0030
 7 H           -0.0207  0.5977  0.3276  0.0313  0.0324  0.0524 -0.0040  0.0023  0.0009  0.0096
                0.0024 -0.0016
 8 H           -0.0149  0.6014  0.3177  0.0353  0.0310  0.0519  0.0133  0.0029  0.0032 -0.0052
                0.0003 -0.0049
 10 H          -0.0127  0.5834  0.3312  0.0346  0.0339  0.0507  0.0012  0.0021  0.0011  0.0091
                0.0025 -0.0066
 11 H          -0.0377  0.5972  0.3190  0.0362  0.0310  0.0580  0.0091  0.0024  0.0024 -0.0053
                0.0010  0.0003
 6 N            0.5500  1.4309 -0.0338  1.0007  0.4412  0.1677  0.1666  0.2248  0.8167  0.8172
                0.8972  0.0190  0.0142  0.4540  0.0143  0.0075  0.0094  0.0167  0.0137 -0.0134
                0.0018 -0.0003  0.0024  0.0016  0.0005 -0.0026  0.0026  0.0054 -0.0015 -0.0068
 9 N            0.5500  1.4313 -0.0345  0.9978  0.4246  0.1717  0.1646  0.2259  0.8119  0.8143
                0.8958  0.0583  0.0182  0.4677  0.0097  0.0121  0.0104  0.0158  0.0082 -0.0124
               -0.0003  0.0014  0.0038  0.0031  0.0003 -0.0019  0.0027  0.0035 -0.0031 -0.0064

 Gross Charges per Atom (Z minus electrons)
 ==========================================
             0.4649    0.2817   -0.3097   -0.1279   -0.1404   -0.0176   -0.0304   -0.0321   -0.0444   -0.0305
            -0.0134
 Net Total:  0.00000000


 Atom-Atom Population Matrix (off-diagonal elements not doubled)
 ===============================================================

     1 :     4.4640
     2 :     0.4580    4.8288
     3 :     0.1764   -0.0495   35.2738
     4 :     0.3854   -0.0851   -0.0432    0.9710
     5 :    -0.0994    0.4204   -0.0094   -0.0015    0.9150
     6 :     0.3485   -0.0488   -0.0454   -0.0564   -0.0125    5.9518
     7 :    -0.0615   -0.0218   -0.0079    0.0110   -0.0015    0.4415    0.7163
     8 :    -0.0526   -0.0163    0.0098   -0.0246   -0.0080    0.4292   -0.0450    0.7410
     9 :    -0.0447    0.3546   -0.0170   -0.0138   -0.0688    0.0097    0.0003   -0.0004    5.9541
    10 :    -0.0114   -0.0640   -0.0034   -0.0028    0.0074    0.0005   -0.0006    0.0004    0.4363    0.7157
    11 :    -0.0276   -0.0580    0.0255   -0.0122   -0.0013   -0.0005   -0.0004   -0.0013    0.4341   -0.0475
             0.7027



 =================================================
 H I R S H F E L D   C H A R G E   A N A L Y S I S
 =================================================
  
 For each fragment: the (numerical) integral of rho(scf) * rho(fragment)/rho(sum-of-fragments)
 (nuclear charges are included, electrons are counted negative)

 The fragments and their ordering are defined in the early G E O M E T R Y output section.
 If you use single-atom fragments, this usually implies that all atoms of the same
 chemical type are grouped together. This may not be the order in which you listed them
 in the input file!

  Fragment                       Charge
 ------------------------------------------
    1  C                         0.0305
    2  C                         0.0306
    3  Br                       -0.1529
    4  H                         0.0417
    5  H                         0.0396
    6  H                         0.1073
    7  H                         0.1146
    8  H                         0.1049
    9  H                         0.0981
   10  N                        -0.1985
   11  N                        -0.2157

 Sum of these charges =          0.00018243
 (accuracy NumInt/Tails)



 =============================
 V O R O N O I   C H A R G E S
 =============================
  
 For each atom: the (numerical) integral of the total electronic charge density in its Voronoi cell,
 i.e. the region of space that is closer to that atom than to any other atom.
 (cf. Wigner-Seitz cells in crystals)

 Within the Voronoi cell the subintegrals over the atomic sphere and the remaining part are evaluated
 separately to give the numbers of electrons (negative charge) in these regions.
 The net total charge in the cell (including the nuclear charge) is also given.

 Values are provided for
    a) the Initial (sum-of-fragments) density
    b) the Orthogonalized-Fragments density
    c) the SCF density
    d) the Voronoi Deformation Density (VDD): the difference SCF-Initial for the complete atomic cell

  Atom                Initial                    OrthFrag                   SCF
             Sphere RestCell NetTotal   Sphere RestCell NetTotal   Sphere RestCell NetTotal      VDD
 -------     ------------------------   ------------------------   ------------------------    -----
    1 C      -2.271   -3.171    0.559   -2.449   -3.155    0.395   -2.294   -3.128    0.578    0.019
    2 C      -2.268   -3.106    0.625   -2.429   -3.112    0.458   -2.295   -3.068    0.636    0.011
    3 Br    -28.767   -5.983    0.250  -28.814   -5.994    0.192  -28.770   -6.184    0.046   -0.203
    4 H      -0.076   -1.522   -0.598   -0.100   -1.340   -0.439   -0.112   -1.427   -0.538    0.059
    5 H      -0.075   -1.465   -0.541   -0.099   -1.306   -0.404   -0.110   -1.385   -0.495    0.046
    6 N      -2.326   -3.653    1.020   -2.468   -3.791    0.741   -2.349   -3.832    0.820   -0.201
    7 H      -0.080   -1.505   -0.584   -0.094   -1.327   -0.421   -0.110   -1.349   -0.459    0.125
    8 H      -0.079   -1.489   -0.568   -0.093   -1.313   -0.406   -0.108   -1.328   -0.436    0.132
    9 N      -2.326   -3.659    1.015   -2.466   -3.797    0.738   -2.349   -3.858    0.793   -0.222
   10 H      -0.080   -1.473   -0.553   -0.093   -1.313   -0.406   -0.110   -1.330   -0.441    0.112
   11 H      -0.079   -1.546   -0.625   -0.094   -1.353   -0.447   -0.106   -1.397   -0.503    0.122
 ---------------------------------------------------------------------------------------------------
 Total NetCharge:               0.000                      0.000                      0.000   -0.000
 (accuracy NumInt/Tails)

 Remark: the 'NetTotal' Voronoi charges often do not match the Mulliken and/or Hirshfeld charges very
 well. This is caused by the fact that chemically different atoms are not treated in accordance with
 their relative sizes. (Voronoi cells are defined by boundary planes halfway between the atoms.)
 However, the CHANGES in charge, comparing 'Initial' to 'SCF' for instance, do give a fair indication
 of the flow of charge caused by the relaxation from sum-of-fragments to self-consistency.

 Warning: the absolute accuracy of the VDD charges obtained using the Fuzzy Cells (Becke) integration
 scheme is much poorer than the one obtained with an 'equivalent' Voronoi integration grid. 



 =================================================================
 M U L T I P O L E   D E R I V E D   C H A R G E   A N A L Y S I S
 =================================================================

[...]
                                   -2.49%     3 S              10.158  0.00     2 C
                                   -1.93%     2 P:x             7.649  0.00    10 N
                                   -1.83%     2 P:x             4.589  0.00     1 C
                                    1.55%     1 P:y            11.051  0.00     6 H
                                    1.54%     1 S              -6.532  1.00     5 H
                                   -1.38%     2 S             -13.620  2.00     1 C
                                    1.28%     1 P:x            -7.062  1.00    10 N
                                   -1.21%     1 S              -6.532  1.00     9 H
                                    1.11%     1 P:z            -5.239  0.67     2 C
                                   -1.10%     2 S               2.394  0.00     9 H
                                    1.09%     1 P:y            -5.239  0.67     1 C
                                    1.03%     1 P:y            -7.062  1.00    11 N
      -0.399  0.00    37 A         30.31%     2 S               2.394  0.00     8 H
                                   27.31%     1 S              -6.532  1.00     8 H
                                   12.19%     1 S              -6.532  1.00     6 H
                                   11.84%     2 S               2.394  0.00     4 H
                                  -11.31%     2 P:y             4.589  0.00     1 C
                                    9.09%     1 S              -6.532  1.00     4 H
                                    8.07%     2 S               2.394  0.00     6 H
                                    7.95%     2 S               2.394  0.00     9 H
                                   -5.98%     2 P:y             4.589  0.00     2 C
                                    4.56%     1 S              -6.532  1.00     9 H
                                   -3.65%     2 P:y             7.649  0.00    11 N
                                   -3.23%     1 P:y            -5.239  0.67     1 C
                                    2.63%     1 S              -6.532  1.00     5 H
                                   -2.52%     2 P:y             7.649  0.00    10 N
                                    2.06%     1 P:y            11.051  0.00     8 H
                                   -1.97%     1 P:y            -5.239  0.67     2 C
                                    1.63%     2 S             -18.450  2.00    11 N
                                    1.57%     2 S               2.394  0.00     7 H
                                   -1.50%     3 S              14.073  0.00    11 N
                                    1.00%     1 P:y            11.051  0.00     4 H
       0.255  0.00    38 A         29.08%     2 S               2.394  0.00     5 H
                                   24.66%     1 S              -6.532  1.00     5 H
                                   17.24%     1 S              -6.532  1.00     4 H
                                   11.52%     2 S               2.394  0.00     9 H
                                   11.38%     1 S              -6.532  1.00     7 H
                                    9.61%     1 S              -6.532  1.00     9 H
                                   -8.19%     2 P:z             4.589  0.00     1 C
                                    6.74%     1 S              -6.532  1.00     6 H
                                   -6.26%     2 P:z             4.589  0.00     2 C
                                    6.13%     2 S               2.394  0.00     6 H
                                    5.82%     2 S               2.394  0.00     7 H
                                   -5.29%     2 P:y             4.589  0.00     1 C
                                    4.23%     2 S               2.394  0.00     4 H
                                   -3.15%     2 P:y             4.589  0.00     2 C
                                   -3.09%     2 P:x             7.649  0.00    10 N
                                    3.00%     1 P:y            -5.239  0.67     2 C
                                   -2.65%     2 P:x             4.589  0.00     2 C
                                   -2.12%     1 P:z            -5.239  0.67     1 C
                                   -1.55%     2 P:x             4.589  0.00     1 C
                                   -1.47%     1 P:z            -5.239  0.67     2 C
                                   -1.27%     2 P:x             7.649  0.00    11 N
                                    1.24%     1 P:y            -5.239  0.67     1 C
                                   -1.22%     2 P:y             7.649  0.00    10 N
                                   -1.19%     4 P:z             3.720  0.00     3 Br
                                    1.13%     4 P:x             3.720  0.00     3 Br
                                   -1.12%     3 S              10.158  0.00     2 C
       1.135  0.00    39 A         19.25%     1 S              -6.532  1.00     4 H
                                   17.74%     1 S              -6.532  1.00     9 H
                                   17.31%     1 S              -6.532  1.00     8 H
                                   13.16%     2 S               2.394  0.00     4 H
                                   10.77%     2 S               2.394  0.00     9 H
                                   -9.80%     2 P:x             7.649  0.00    11 N
                                    7.53%     2 P:z             4.589  0.00     1 C
                                   -5.29%     5 S               6.099  0.00     3 Br
                                   -4.79%     2 P:y             4.589  0.00     1 C
                                   -4.28%     2 P:x             7.649  0.00    10 N
                                    4.22%     2 S               2.394  0.00     8 H
                                    4.13%     2 P:z             4.589  0.00     2 C
                                    3.63%     2 P:x             4.589  0.00     1 C
                                    3.51%     1 S              -6.532  1.00     7 H
                                    3.49%     1 P:y            -5.239  0.67     1 C
                                    3.36%     1 S              -6.532  1.00     5 H
                                    2.84%     1 P:x            -7.062  1.00    11 N
                                    2.37%     1 S              -6.532  1.00     6 H
                                   -2.08%     3 S              10.158  0.00     1 C
                                   -1.83%     2 P:z             7.649  0.00    11 N
                                    1.73%     2 S               2.394  0.00     6 H
                                    1.58%     4 P:x             3.720  0.00     3 Br
                                   -1.50%     3 S              10.158  0.00     2 C
                                    1.46%     1 P:x            -5.239  0.67     1 C
                                    1.28%     1 P:z            -5.239  0.67     1 C
                                    1.22%     4 P:z             3.720  0.00     3 Br
                                    1.21%     2 P:x             4.589  0.00     2 C
                                    1.15%     3 S              40.869  0.00     8 H
       1.408  0.00    40 A         33.87%     1 S              -6.532  1.00     5 H
                                   22.84%     2 S               2.394  0.00     5 H
                                   17.66%     1 S              -6.532  1.00     6 H
                                   15.81%     1 S              -6.532  1.00     4 H
                                  -11.02%     2 P:y             4.589  0.00     2 C
                                    9.87%     2 S               2.394  0.00     4 H
                                   -7.52%     2 P:y             4.589  0.00     1 C
                                    7.13%     1 S              -6.532  1.00     8 H
                                   -5.32%     3 S              10.158  0.00     2 C
                                    3.85%     1 S              -6.532  1.00     9 H
                                    3.71%     2 S               2.394  0.00     6 H
                                   -2.73%     2 P:y             7.649  0.00    10 N
                                   -2.38%     2 P:y             7.649  0.00    11 N
                                    2.04%     2 S             -13.620  2.00     2 C
                                    1.85%     1 P:x            -5.239  0.67     1 C
                                    1.67%     1 P:z            -5.239  0.67     1 C
                                    1.65%     1 P:y            -5.239  0.67     2 C
                                    1.58%     3 S              40.869  0.00     5 H
                                   -1.44%     3 S              10.158  0.00     1 C
                                    1.19%     1 P:x            -5.239  0.67     2 C
                                    1.08%     3 S              40.869  0.00     6 H
                                   -1.02%     1 P:y            -5.239  0.67     1 C
                                    1.01%     3 S              40.869  0.00     4 H
       1.582  0.00    41 A         20.61%     1 S              -6.532  1.00     9 H
                                   20.43%     1 S              -6.532  1.00     7 H
                                   17.29%     1 S              -6.532  1.00     6 H
                                   10.84%     2 S               2.394  0.00     9 H
                                   -9.16%     2 P:x             7.649  0.00    10 N
                                    6.82%     1 S              -6.532  1.00     4 H
                                   -6.14%     2 P:x             7.649  0.00    11 N
                                    5.86%     1 S              -6.532  1.00     8 H
                                    4.79%     1 P:x            -7.062  1.00    10 N
                                    4.52%     2 S               2.394  0.00     6 H
                                    4.08%     2 S               2.394  0.00     4 H
                                   -3.24%     2 P:y             7.649  0.00    10 N
                                    2.59%     2 S               2.394  0.00     8 H
                                    2.38%     1 P:x            -5.239  0.67     1 C
                                    2.36%     2 S               2.394  0.00     7 H
                                    2.36%     3 S              40.869  0.00     7 H
                                    2.33%     1 P:x            -5.239  0.67     2 C
                                    1.91%     1 P:y            -7.062  1.00    10 N
                                    1.79%     3 S              40.869  0.00     6 H
                                    1.66%     1 S              -6.532  1.00     5 H
                                    1.59%     3 S              40.869  0.00     9 H
                                    1.39%     1 P:y            -5.239  0.67     1 C
                                   -1.32%     2 P:y             7.649  0.00    11 N
                                    1.30%     1 P:x            -7.062  1.00    11 N
                                    1.14%     3 S              40.869  0.00     8 H



 =======================================================================
 Electrostatic potential at the Nuclei due to electrons and other nuclei
 =======================================================================
  
         Atom                  Potential
         ----                  ---------
     1)   C                  14.70344465
     2)   C                  14.72059308
     3)   Br                180.55605743
     4)   H                   1.07764326
     5)   H                   1.08027714
     6)   N                  18.39991379
     7)   H                   1.03012670
     8)   H                   1.01901547
     9)   N                  18.40644447
    10)   H                   1.03470450
    11)   H                   1.02342308
 Mulliken charges used for AMS results%charges...


    =====================
     CALCULATION RESULTS
    =====================

Energy (hartree)            -1.97179250


--------------
Atomic charges
--------------
  Index   Atom    Charge
      1      C    0.4649
      2      C    0.2817
      3     Br   -0.3097
      4      H   -0.1279
      5      H   -0.1404
      6      N   -0.0176
      7      H   -0.0304
      8      H   -0.0321
      9      N   -0.0444
     10      H   -0.0305
     11      H   -0.0134


Dipole moment vector    (Debye):    -2.82730661   -0.23564139    1.57785121
              magnitude (Debye):     3.24635241


-----------------------
Molecular orbitals info
-----------------------
n orbitals:              226
n spin:                    1

Note: only printing virtual orbitals with
      energy smaller than HOMO + 100. eV

Note: fractional orbital occupations. HOMO and LUMO labels are not well defined!

HOMO (eV):              -6.0576
LUMO (eV):              -5.4664
HOMO-LUMO gap (eV):      0.5911

   Index   Energy (eV)    Occupation
     151       93.8972         0.000       
     150       91.9828         0.000       
     149       91.8563         0.000       
     148       88.2837         0.000       
     147       87.7754         0.000       
     146       85.2071         0.000       
     145       84.4495         0.000       
     144       83.5647         0.000       
     143       82.3939         0.000       
     142       82.1639         0.000       
     141       81.8957         0.000       
     140       81.0302         0.000       
     139       80.6667         0.000       
     138       79.8908         0.000       
     137       78.8115         0.000       
     136       77.9581         0.000       
     135       77.3378         0.000       
     134       76.6790         0.000       
     133       75.5148         0.000       
     132       74.6721         0.000       
     131       73.3976         0.000       
     130       72.5977         0.000       
     129       71.2793         0.000       
     128       71.0907         0.000       
     127       69.0057         0.000       
     126       68.4720         0.000       
     125       66.1754         0.000       
     124       65.8464         0.000       
     123       64.6161         0.000       
     122       63.0396         0.000       
     121       62.8381         0.000       
     120       60.7306         0.000       
     119       59.0388         0.000       
     118       58.6876         0.000       
     117       55.9757         0.000       
     116       54.3785         0.000       
     115       53.6603         0.000       
     114       53.0215         0.000       
     113       51.8453         0.000       
     112       50.6288         0.000       
     111       49.0353         0.000       
     110       48.2836         0.000       
     109       47.0122         0.000       
     108       46.1579         0.000       
     107       44.1998         0.000       
     106       43.2726         0.000       
     105       43.1253         0.000       
     104       40.3845         0.000       
     103       39.1572         0.000       
     102       38.2664         0.000       
     101       37.6929         0.000       
     100       36.4972         0.000       
      99       35.3863         0.000       
      98       35.1180         0.000       
      97       34.1387         0.000       
      96       33.7897         0.000       
      95       33.0014         0.000       
      94       32.8846         0.000       
      93       32.7437         0.000       
      92       32.1751         0.000       
      91       30.6468         0.000       
      90       30.2577         0.000       
      89       29.9694         0.000       
      88       29.0260         0.000       
      87       28.8229         0.000       
      86       27.7708         0.000       
      85       26.9086         0.000       
      84       26.4974         0.000       
      83       26.1548         0.000       
      82       25.6361         0.000       
      81       24.8916         0.000       
      80       24.5315         0.000       
      79       24.1224         0.000       
      78       23.4623         0.000       
      77       22.9405         0.000       
      76       20.4741         0.000       
      75       19.7093         0.000       
      74       19.1421         0.000       
      73       18.1888         0.000       
      72       17.3434         0.000       
      71       16.2405         0.000       
      70       15.2070         0.000       
      69       14.3801         0.000       
      68       13.5253         0.000       
      67       13.1697         0.000       
      66       12.4472         0.000       
      65       12.2152         0.000       
      64       11.4791         0.000       
      63       11.1856         0.000       
      62       10.7422         0.000       
      61       10.1173         0.000       
      60        9.6557         0.000       
      59        9.2653         0.000       
      58        8.8060         0.000       
      57        8.1634         0.000       
      56        8.0325         0.000       
      55        7.8365         0.000       
      54        7.0435         0.000       
      53        6.6104         0.000       
      52        6.3921         0.000       
      51        6.2460         0.000       
      50        5.6731         0.000       
      49        5.3296         0.000       
      48        5.2864         0.000       
      47        5.0929         0.000       
      46        4.4593         0.000       
      45        4.3076         0.000       
      44        3.9503         0.000       
      43        3.8581         0.000       
      42        3.6548         0.000       
      41        1.5822         0.000       
      40        1.4080         0.000       
      39        1.1347         0.000       
      38        0.2549         0.000       
      37       -0.3985         0.000       
      36       -0.5793         0.000       
      35       -1.9127         0.000       
      34       -5.4664         1.000 < LUMO
      33       -6.0576         2.000 < HOMO
      32       -6.4065         2.000       
      31       -6.5646         2.000       
      30       -7.0003         2.000       
      29       -8.7313         2.000       
      28       -9.9877         2.000       
      27      -11.6267         2.000       
      26      -12.1044         2.000       
      25      -12.4401         2.000       
      24      -13.0120         2.000       
      23      -15.1427         2.000       
      22      -17.7677         2.000       
      21      -18.9986         2.000       
      20      -22.5308         2.000       
      19      -23.4528         2.000       
      18      -65.0022         2.000       
      17      -65.0023         2.000       
      16      -65.2239         2.000       
      15      -65.2292         2.000       
      14      -65.3007         2.000       
      13     -171.5726         2.000       
      12     -171.5794         2.000       
      11     -171.8784         2.000       
      10     -235.4483         2.000       
       9     -271.9251         2.000       
       8     -272.3625         2.000       
       7     -381.8290         2.000       
       6     -382.0623         2.000       
       5    -1525.6899         2.000       
       4    -1525.6920         2.000       
       3    -1525.7940         2.000       
       2    -1728.8127         2.000       
       1   -13295.3156         2.000       

AMS application finished. Exiting.
NORMAL TERMINATION
     Total cpu time:      31.06
  Total system time:       0.33
 Total elapsed time:      31.50
NORMAL TERMINATION with warnings
