srun: Job 662083 step creation temporarily disabled, retrying (Requested nodes are busy)
srun: Job 662083 step creation still disabled, retrying (Requested nodes are busy)
srun: Job 662083 step creation still disabled, retrying (Requested nodes are busy)
srun: Step created for StepId=662083.63

 *******************************************************************************
 *                                                                             *
 *  --------------------------------                                           *
 *   Amsterdam Modeling Suite (AMS)              2026.103                      *
 *  --------------------------------                                           *
 *                                               r260501 2026-05-01 873454b5   *
 *                                                                             *
 *                                                                             *
 *                              =================                              *
 *                              |               |                              *
 *                              |     A M S     |                              *
 *                              |               |                              *
 *                              =================                              *
 *                                                                             *
 *                                                                             *
 *   Online information and documentation:  https://www.scm.com/support/       *
 *   E-mail:  support@scm.com   info@scm.com                                   *
 *                                                                             *
 *   Scientific publications using AMS results must be properly referenced     *
 *   See the User Manuals (or the web site) for recommended citations          *
 *   The terms and conditions of the End User License Agreement apply to       *
 *   the use of AMS, https://www.scm.com/license-terms/                        *
 *                                                                             *
 **********************  x86_64_linux_intel / intelmpi  ************************
 
 Licensed to: Jong-June Jeon / University of Seoul 2026-06-02 13:44:15
 SCM User ID: u30731
  
 AMS 2026.103  RunTime: Jun03-2026 03:45:01  ShM Nodes: 1  Procs: 1

 AMS jobname: c2_fragB_ts
 AMS jobid  : 1141560273

 Start   directory: /gpfs/home1/yeseo1ee/projects/eda-asm-prediction/ADF_800/adf_outputs/batch_000/dipolar_000390/
 Results directory: /gpfs/home1/yeseo1ee/projects/eda-asm-prediction/ADF_800/adf_outputs/batch_000/dipolar_000390/c2_fragB_ts.results/
 Scratch directory: /tmp/amstmp_c2_fragB_ts_kid0.1141560273/

 RNG seed: -376966783 487274737 -753777231 -1290093113 1368059937 168666585 1053471271 642216944



                      ************************************************************************
                      *  ADF 2026.103  RunTime: Jun03-2026 03:45:01  ShM Nodes: 1  Procs: 1  *
                      ************************************************************************
  

       ****************************
       * SINGLE POINT CALCULATION *
       ****************************

--------
Geometry
--------
Formula: C7H4BrNO
Atoms
  Index Symbol   x (angstrom)   y (angstrom)   z (angstrom)
      1      C    -0.04958000     0.88593000    -1.12856000
      2      C    -0.84786000    -0.42956000    -1.13571000
      3      O     0.08560000    -1.32858000    -0.52535000
      4      C     0.32927000    -0.52996000     0.64110000
      5      C    -1.13745000    -0.38202000     1.15858000
      6      C    -1.54294000    -0.23638000     2.49773000
      7      N    -1.85864000    -0.12425000     3.61466000
      8      C    -1.86629000    -0.31266000     0.02512000
      9     Br    -3.68336000     0.02050000    -0.19205000
     10      C     0.72532000     0.81359000    -0.00961000
     11      H    -0.27123000     1.74244000    -1.75935000
     12      H    -1.23602000    -0.80180000    -2.08854000
     13      H     1.03570000    -0.99757000     1.33300000
     14      H     1.22040000     1.62440000     0.52248000

Total System Charge              0.00000


----------------
ADF Engine Input
----------------
 
   Basis
     Type TZ2P
     Core None
   End
   XC
     GGA BLYP
     Dispersion GRIMME3 BJDAMP
   End
   Symmetry NOSYM
   NumericalQuality Normal
   Unrestricted No
   SCF
     Iterations 200
     Converge 1.0e-6
   End
   Save TAPE21
 

 Title: *** (NO TITLE) ***

 *** adf ***



 ===========================
 A T T A C H E D   F I L E S
 ===========================
  



 ===============================
 M O D E L   P A R A M E T E R S
 ===============================
  
 DENSITY FUNCTIONAL POTENTIAL (scf)
    LDA:                               Exchange only                           == Not Default ==
    Gradient Corrections:              Becke88 LYP                             == Not Default ==

 SPIN  (restricted / unrestr.)
    Molecule:                          Restricted                               
    Fragments:                         Restricted                               

 OTHER ASPECTS
    Relativistic Corrections:          scalar (ZORA,MAPA)                       

    Nuclear Charge Density Model:      Point Charge Nuclei                      
    Core Treatment:                    Frozen Orbital(s)                        

    Hyperfine or Zeeman Interaction:   ---                                      

 Settings for Grimme D3 dispersion correction

      damping                        BJ
      s6                          1.000
      s8                          2.700
      a1                          0.430
      a2                          4.236

 Other (technical) parameters

      alpha                      14.000
      version                         4
 


 Fragment File(s)
 ----------------
 C:
         file : /gpfs/home1/yeseo1ee/projects/eda-asm-prediction/ADF_800/adf_outputs/batch_000/dipolar_000390/c2_fragB_ts.results/t21.50BA88D5.C
         jobid: 0
         title: Carbon (TZ2P)
 O:
         file : /gpfs/home1/yeseo1ee/projects/eda-asm-prediction/ADF_800/adf_outputs/batch_000/dipolar_000390/c2_fragB_ts.results/t21.6E90ABAE.O
         jobid: 0
         title: Oxygen (TZ2P)
 N:
         file : /gpfs/home1/yeseo1ee/projects/eda-asm-prediction/ADF_800/adf_outputs/batch_000/dipolar_000390/c2_fragB_ts.results/t21.44EAA48D.N
         jobid: 0
         title: Nitrogen (TZ2P)
 Br:
         file : /gpfs/home1/yeseo1ee/projects/eda-asm-prediction/ADF_800/adf_outputs/batch_000/dipolar_000390/c2_fragB_ts.results/t21.42F58B50.Br
         jobid: 0
         title: Bromine (TZ2P)
 H:
         file : /gpfs/home1/yeseo1ee/projects/eda-asm-prediction/ADF_800/adf_outputs/batch_000/dipolar_000390/c2_fragB_ts.results/t21.6F35CCAB.H
         jobid: 0
         title: Hydrogen (TZ2P)



 ===============
 G E O M E T R Y  ***  3D  Molecule  ***
 ===============
  

 ATOMS
 =====                            X Y Z                    CHARGE
                                (Angstrom)             Nucl     +Core       At.Mass
                       --------------------------    ----------------       -------
    1  C              -0.0496    0.8859   -1.1286      6.00      6.00       12.0000
    2  C              -0.8479   -0.4296   -1.1357      6.00      6.00       12.0000
    3  O               0.0856   -1.3286   -0.5253      8.00      8.00       15.9949
    4  C               0.3293   -0.5300    0.6411      6.00      6.00       12.0000
    5  C              -1.1374   -0.3820    1.1586      6.00      6.00       12.0000
    6  C              -1.5429   -0.2364    2.4977      6.00      6.00       12.0000
    7  N              -1.8586   -0.1242    3.6147      7.00      7.00       14.0031
    8  C              -1.8663   -0.3127    0.0251      6.00      6.00       12.0000
    9  Br             -3.6834    0.0205   -0.1920     35.00     35.00       78.9183
   10  C               0.7253    0.8136   -0.0096      6.00      6.00       12.0000
   11  H              -0.2712    1.7424   -1.7593      1.00      1.00        1.0078
   12  H              -1.2360   -0.8018   -2.0885      1.00      1.00        1.0078
   13  H               1.0357   -0.9976    1.3330      1.00      1.00        1.0078
   14  H               1.2204    1.6244    0.5225      1.00      1.00        1.0078


 FRAGMENTS
 =========                                     Atoms in this Fragment     Cart. coord.s (Angstrom)
                                               -------------------------------------------------------
    1  C                                                 1  C           -0.0496    0.8859   -1.1286
    2  C                                                 2  C           -0.8479   -0.4296   -1.1357
    3  C                                                 4  C            0.3293   -0.5300    0.6411
    4  C                                                 5  C           -1.1374   -0.3820    1.1586
    5  C                                                 6  C           -1.5429   -0.2364    2.4977
    6  C                                                 8  C           -1.8663   -0.3127    0.0251
    7  C                                                10  C            0.7253    0.8136   -0.0096
    8  O                                                 3  O            0.0856   -1.3286   -0.5253
    9  N                                                 7  N           -1.8586   -0.1242    3.6147
   10  Br                                                9  Br          -3.6834    0.0205   -0.1920
   11  H                                                11  H           -0.2712    1.7424   -1.7593
   12  H                                                12  H           -1.2360   -0.8018   -2.0885
   13  H                                                13  H            1.0357   -0.9976    1.3330
   14  H                                                14  H            1.2204    1.6244    0.5225


 Interatomic Distance Matrix (Angstrom)
 --------------------------------------

   1)     0.000
   2)     1.539   0.000
   3)     2.299   1.433   0.000
   4)     2.298   2.134   1.434   0.000
   5)     2.832   2.313   2.286   1.562   0.000
   6)     4.079   3.704   3.603   2.653   1.407   0.000
   7)     5.176   4.866   4.730   3.714   2.573   1.166   0.000
   8)     2.463   1.549   2.268   2.291   1.349   2.495   3.594   0.000
   9)     3.851   3.022   4.017   4.135   2.910   3.447   4.224   1.860   0.000
  10)     1.363   2.300   2.294   1.544   2.503   3.540   4.549   2.826   4.483   0.000
  11)     1.087   2.332   3.329   3.360   3.712   4.864   5.906   3.155   4.131   2.218
          0.000
  12)     2.275   1.094   2.114   3.158   3.276   4.631   5.777   2.259   3.203   3.283
          2.741   0.000
  13)     3.284   3.157   2.113   1.094   2.265   2.930   3.788   3.256   5.063   2.276
          4.333   4.112   0.000
  14)     2.210   3.354   3.333   2.334   3.161   3.873   4.701   3.678   5.209   1.089
          2.729   4.329   2.751   0.000

 Min. Distance =    1.0866
 Max. Distance =    5.9063



 =====================================
 S Y M M E T R Y ,   E L E C T R O N S
 =====================================
  
 Symmetry: NOSYM

 Irreducible Representations, including subspecies
 -------------------------------------------------
 A


 Configuration of Valence Electrons
 ==================================
 ( determined in the SCF procedure )

 Total:   96

 Net Charge: 0 (Nuclei minus Electrons)

 Aufbau principle for MO occupations will be applied through SCF cycle no.     100
 Thereafter, the program will assign electrons to MOs that are spatially
 similar to the occupied MOs in a "reference" cycle ("KeepOrbitals").
 The reference cycle is always the PREVIOUS cycle: it will evolve with
 the SCF procedure.
 ***************************************************************************************************



                                      ****************************************
                                      *  B U I L D : (Fragments, Functions)  *
                                      ****************************************
  



 =======
 S F O s  ***  (Symmetrized Fragment Orbitals)  ***
 =======
  
 SFOs are linear combinations of (valence) Fragment Orbitals (FOs), such that the SFOs transform as the
 irreducible representations of the (molecular) symmetry group. Each SFO is therefore characterized by
 an irrep of the molecule and by a few (or only one) generating FOs.
 The SFOs constitute a symmetry-adapted basis for the Fock matrix. The MO eigenvector coefficients in
 this basis provide a direct interpretation of the MOs in terms of Frontier Orbital Theory.

 The SFOs are combined with auxiliary Core Functions (CFs) to ensure orthogonalization on the (frozen)
 Core Orbitals (COs). The Core-orthogonalized SFOs (CSFOs) constitute the true Fock basis.

 The FOs, and hence also the (C)SFOs are combinations of the elementary basis functions (BAS). The basis
 functions that participate in the description of the SFOs depend on the irrep. The indices of the
 involved functions are printed below for each irrep.
 (The complete list of primitive basis functions is printed in another section)

 Total nr. of (C)SFOs (summation over all irreps) :   334

 NOTE: a (C)SFO that is defined as a combination of more than one FO is usually NOT normalized.



                                       === A ===
 Nr. of SFOs :  334
 Cartesian basis functions that participate in this irrep (total number =   381) :
      1     2     3     4     5     6     9    12     7    10
     13     8    11    14    15    16    17    18    19    20
     21    22    23    24    25    26    27    28    29    30
     31    32    33    34    35    36    39    42    37    40
     43    38    41    44    45    46    47    48    49    50
     51    52    53    54    55    56    57    58    59    60
     61    62    63    64    65    66    69    72    67    70
     73    68    71    74    75    76    77    78    79    80
     81    82    83    84    85    86    87    88    89    90
     91    92    93    94    95    96    99   102    97   100
    103    98   101   104   105   106   107   108   109   110
    111   112   113   114   115   116   117   118   119   120
    121   122   123   124   125   126   129   132   127   130
    133   128   131   134   135   136   137   138   139   140
    141   142   143   144   145   146   147   148   149   150
    151   152   153   154   155   156   159   162   157   160
    163   158   161   164   165   166   167   168   169   170
    171   172   173   174   175   176   177   178   179   180
    181   182   183   184   185   186   189   192   187   190
    193   188   191   194   195   196   197   198   199   200
    201   202   203   204   205   206   207   208   209   210
    211   212   213   214   215   216   219   222   217   220
    223   218   221   224   225   226   227   228   229   230
    231   232   233   234   235   236   237   238   239   240
    241   242   243   244   245   246   249   252   247   250
    253   248   251   254   255   256   257   258   259   260
    261   262   263   264   265   266   267   268   269   270
    271   272   273   280   281   306   307   308   274   277
    282   285   309   312   315   275   278   283   286   310
    313   316   276   279   284   287   311   314   317   288
    294   300   318   289   295   301   319   290   296   302
    320   291   297   303   321   292   298   304   322   293
    299   305   323   324   325   326   327   328   329   330
    331   332   333   334   335   336   337   338   339   340
    341   342   343   344   345   346   347   348   349   350
    351   352   353   354   355   356   357   358   359   360
    361   362   363   364   365   366   367   368   369   370
    371   372   373   374   375   376   377   378   379   380
    381

    SFO  (index         Fragment          Generating    Expansion in Fragment Orbitals
  indx  incl.CFs)   Occup   Orb.Energy   FragmentType  Coeff.   Orbital     on Fragment
 --------------------------------------------------------------------------------------
     1       1      2.000     -10.066 au  C             1.00      1 S               1
                        (    -273.921 eV)
     2       2      2.000      -0.501 au  C             1.00      2 S               1
                        (     -13.620 eV)
     3       3       --         0.373 au  C             1.00      3 S               1
                        (      10.158 eV)
     4       4       --         5.405 au  C             1.00      4 S               1
                        (     147.073 eV)
     5       5       --        49.848 au  C             1.00      5 S               1
                        (    1356.422 eV)
     6       6      0.667      -0.193 au  C             1.00      1 P:x             1
                        (      -5.239 eV)
     7       7       --         0.169 au  C             1.00      2 P:x             1
                        (       4.589 eV)
     8       8       --         2.013 au  C             1.00      3 P:x             1
                        (      54.789 eV)
     9       9      0.667      -0.193 au  C             1.00      1 P:y             1
                        (      -5.239 eV)
    10      10       --         0.169 au  C             1.00      2 P:y             1
                        (       4.589 eV)
    11      11       --         2.013 au  C             1.00      3 P:y             1
                        (      54.789 eV)
    12      12      0.667      -0.193 au  C             1.00      1 P:z             1
                        (      -5.239 eV)
    13      13       --         0.169 au  C             1.00      2 P:z             1
                        (       4.589 eV)
    14      14       --         2.013 au  C             1.00      3 P:z             1
                        (      54.789 eV)
    15      15       --         1.243 au  C             1.00      1 D:z2            1
                        (      33.824 eV)
    16      16       --         1.243 au  C             1.00      1 D:x2-y2         1
                        (      33.824 eV)
    17      17       --         1.243 au  C             1.00      1 D:xy            1
                        (      33.824 eV)
    18      18       --         1.243 au  C             1.00      1 D:xz            1
                        (      33.824 eV)
    19      19       --         1.243 au  C             1.00      1 D:yz            1
                        (      33.824 eV)
    20      20       --         4.016 au  C             1.00      1 F:z3            1
                        (     109.271 eV)
    21      21       --         4.016 au  C             1.00      1 F:z             1
                        (     109.271 eV)
    22      22       --         4.016 au  C             1.00      1 F:xyz           1
                        (     109.271 eV)
    23      23       --         4.016 au  C             1.00      1 F:z2x           1
                        (     109.271 eV)
    24      24       --         4.016 au  C             1.00      1 F:z2y           1
                        (     109.271 eV)
    25      25       --         4.016 au  C             1.00      1 F:x             1
                        (     109.271 eV)
    26      26       --         4.016 au  C             1.00      1 F:y             1
                        (     109.271 eV)
    27      27      2.000     -10.066 au  C             1.00      1 S               2
                        (    -273.921 eV)
    28      28      2.000      -0.501 au  C             1.00      2 S               2
                        (     -13.620 eV)
    29      29       --         0.373 au  C             1.00      3 S               2
                        (      10.158 eV)
    30      30       --         5.405 au  C             1.00      4 S               2
                        (     147.073 eV)
    31      31       --        49.848 au  C             1.00      5 S               2
                        (    1356.422 eV)
    32      32      0.667      -0.193 au  C             1.00      1 P:x             2
                        (      -5.239 eV)
    33      33       --         0.169 au  C             1.00      2 P:x             2
                        (       4.589 eV)
    34      34       --         2.013 au  C             1.00      3 P:x             2
                        (      54.789 eV)
    35      35      0.667      -0.193 au  C             1.00      1 P:y             2
                        (      -5.239 eV)
    36      36       --         0.169 au  C             1.00      2 P:y             2
                        (       4.589 eV)
    37      37       --         2.013 au  C             1.00      3 P:y             2
                        (      54.789 eV)
    38      38      0.667      -0.193 au  C             1.00      1 P:z             2
                        (      -5.239 eV)
    39      39       --         0.169 au  C             1.00      2 P:z             2
                        (       4.589 eV)
    40      40       --         2.013 au  C             1.00      3 P:z             2
                        (      54.789 eV)
    41      41       --         1.243 au  C             1.00      1 D:z2            2
                        (      33.824 eV)
    42      42       --         1.243 au  C             1.00      1 D:x2-y2         2
                        (      33.824 eV)
    43      43       --         1.243 au  C             1.00      1 D:xy            2
                        (      33.824 eV)
    44      44       --         1.243 au  C             1.00      1 D:xz            2
                        (      33.824 eV)
    45      45       --         1.243 au  C             1.00      1 D:yz            2
                        (      33.824 eV)
    46      46       --         4.016 au  C             1.00      1 F:z3            2
                        (     109.271 eV)
    47      47       --         4.016 au  C             1.00      1 F:z             2
                        (     109.271 eV)
    48      48       --         4.016 au  C             1.00      1 F:xyz           2
                        (     109.271 eV)
    49      49       --         4.016 au  C             1.00      1 F:z2x           2
                        (     109.271 eV)
    50      50       --         4.016 au  C             1.00      1 F:z2y           2
                        (     109.271 eV)
    51      51       --         4.016 au  C             1.00      1 F:x             2
                        (     109.271 eV)
    52      52       --         4.016 au  C             1.00      1 F:y             2
                        (     109.271 eV)
    53      53      2.000     -10.066 au  C             1.00      1 S               3
                        (    -273.921 eV)
    54      54      2.000      -0.501 au  C             1.00      2 S               3
                        (     -13.620 eV)
    55      55       --         0.373 au  C             1.00      3 S               3
                        (      10.158 eV)
    56      56       --         5.405 au  C             1.00      4 S               3
                        (     147.073 eV)
    57      57       --        49.848 au  C             1.00      5 S               3
                        (    1356.422 eV)
    58      58      0.667      -0.193 au  C             1.00      1 P:x             3
                        (      -5.239 eV)
    59      59       --         0.169 au  C             1.00      2 P:x             3
                        (       4.589 eV)
    60      60       --         2.013 au  C             1.00      3 P:x             3
                        (      54.789 eV)
    61      61      0.667      -0.193 au  C             1.00      1 P:y             3
                        (      -5.239 eV)
    62      62       --         0.169 au  C             1.00      2 P:y             3
                        (       4.589 eV)
    63      63       --         2.013 au  C             1.00      3 P:y             3
                        (      54.789 eV)
    64      64      0.667      -0.193 au  C             1.00      1 P:z             3
                        (      -5.239 eV)
    65      65       --         0.169 au  C             1.00      2 P:z             3
                        (       4.589 eV)
    66      66       --         2.013 au  C             1.00      3 P:z             3
                        (      54.789 eV)
    67      67       --         1.243 au  C             1.00      1 D:z2            3
                        (      33.824 eV)
    68      68       --         1.243 au  C             1.00      1 D:x2-y2         3
                        (      33.824 eV)
    69      69       --         1.243 au  C             1.00      1 D:xy            3
                        (      33.824 eV)
    70      70       --         1.243 au  C             1.00      1 D:xz            3
                        (      33.824 eV)
    71      71       --         1.243 au  C             1.00      1 D:yz            3
                        (      33.824 eV)
    72      72       --         4.016 au  C             1.00      1 F:z3            3
                        (     109.271 eV)
    73      73       --         4.016 au  C             1.00      1 F:z             3
                        (     109.271 eV)
    74      74       --         4.016 au  C             1.00      1 F:xyz           3
                        (     109.271 eV)
    75      75       --         4.016 au  C             1.00      1 F:z2x           3
                        (     109.271 eV)
    76      76       --         4.016 au  C             1.00      1 F:z2y           3
                        (     109.271 eV)
    77      77       --         4.016 au  C             1.00      1 F:x             3
                        (     109.271 eV)
    78      78       --         4.016 au  C             1.00      1 F:y             3
                        (     109.271 eV)
    79      79      2.000     -10.066 au  C             1.00      1 S               4
                        (    -273.921 eV)
    80      80      2.000      -0.501 au  C             1.00      2 S               4
                        (     -13.620 eV)
    81      81       --         0.373 au  C             1.00      3 S               4
                        (      10.158 eV)
    82      82       --         5.405 au  C             1.00      4 S               4
                        (     147.073 eV)
    83      83       --        49.848 au  C             1.00      5 S               4
                        (    1356.422 eV)
    84      84      0.667      -0.193 au  C             1.00      1 P:x             4
                        (      -5.239 eV)
    85      85       --         0.169 au  C             1.00      2 P:x             4
                        (       4.589 eV)
    86      86       --         2.013 au  C             1.00      3 P:x             4
                        (      54.789 eV)
    87      87      0.667      -0.193 au  C             1.00      1 P:y             4
                        (      -5.239 eV)
    88      88       --         0.169 au  C             1.00      2 P:y             4
                        (       4.589 eV)
    89      89       --         2.013 au  C             1.00      3 P:y             4
                        (      54.789 eV)
    90      90      0.667      -0.193 au  C             1.00      1 P:z             4
                        (      -5.239 eV)
    91      91       --         0.169 au  C             1.00      2 P:z             4
                        (       4.589 eV)
    92      92       --         2.013 au  C             1.00      3 P:z             4
                        (      54.789 eV)
    93      93       --         1.243 au  C             1.00      1 D:z2            4
                        (      33.824 eV)
    94      94       --         1.243 au  C             1.00      1 D:x2-y2         4
                        (      33.824 eV)
    95      95       --         1.243 au  C             1.00      1 D:xy            4
                        (      33.824 eV)
    96      96       --         1.243 au  C             1.00      1 D:xz            4
                        (      33.824 eV)
    97      97       --         1.243 au  C             1.00      1 D:yz            4
                        (      33.824 eV)
    98      98       --         4.016 au  C             1.00      1 F:z3            4
                        (     109.271 eV)
    99      99       --         4.016 au  C             1.00      1 F:z             4
                        (     109.271 eV)
   100     100       --         4.016 au  C             1.00      1 F:xyz           4
                        (     109.271 eV)
   101     101       --         4.016 au  C             1.00      1 F:z2x           4
                        (     109.271 eV)
   102     102       --         4.016 au  C             1.00      1 F:z2y           4
                        (     109.271 eV)
   103     103       --         4.016 au  C             1.00      1 F:x             4
                        (     109.271 eV)
   104     104       --         4.016 au  C             1.00      1 F:y             4
                        (     109.271 eV)
   105     105      2.000     -10.066 au  C             1.00      1 S               5
                        (    -273.921 eV)
   106     106      2.000      -0.501 au  C             1.00      2 S               5
                        (     -13.620 eV)
   107     107       --         0.373 au  C             1.00      3 S               5
                        (      10.158 eV)
   108     108       --         5.405 au  C             1.00      4 S               5
                        (     147.073 eV)
   109     109       --        49.848 au  C             1.00      5 S               5
                        (    1356.422 eV)
   110     110      0.667      -0.193 au  C             1.00      1 P:x             5
                        (      -5.239 eV)
   111     111       --         0.169 au  C             1.00      2 P:x             5
                        (       4.589 eV)
   112     112       --         2.013 au  C             1.00      3 P:x             5
                        (      54.789 eV)
   113     113      0.667      -0.193 au  C             1.00      1 P:y             5
                        (      -5.239 eV)
   114     114       --         0.169 au  C             1.00      2 P:y             5
                        (       4.589 eV)
   115     115       --         2.013 au  C             1.00      3 P:y             5
                        (      54.789 eV)
   116     116      0.667      -0.193 au  C             1.00      1 P:z             5
                        (      -5.239 eV)
   117     117       --         0.169 au  C             1.00      2 P:z             5
                        (       4.589 eV)
   118     118       --         2.013 au  C             1.00      3 P:z             5
                        (      54.789 eV)
   119     119       --         1.243 au  C             1.00      1 D:z2            5
                        (      33.824 eV)
   120     120       --         1.243 au  C             1.00      1 D:x2-y2         5
                        (      33.824 eV)
   121     121       --         1.243 au  C             1.00      1 D:xy            5
                        (      33.824 eV)
   122     122       --         1.243 au  C             1.00      1 D:xz            5
                        (      33.824 eV)
   123     123       --         1.243 au  C             1.00      1 D:yz            5
                        (      33.824 eV)
   124     124       --         4.016 au  C             1.00      1 F:z3            5
                        (     109.271 eV)
   125     125       --         4.016 au  C             1.00      1 F:z             5
                        (     109.271 eV)
   126     126       --         4.016 au  C             1.00      1 F:xyz           5
                        (     109.271 eV)
   127     127       --         4.016 au  C             1.00      1 F:z2x           5
                        (     109.271 eV)
   128     128       --         4.016 au  C             1.00      1 F:z2y           5
                        (     109.271 eV)
   129     129       --         4.016 au  C             1.00      1 F:x             5
                        (     109.271 eV)
   130     130       --         4.016 au  C             1.00      1 F:y             5
                        (     109.271 eV)
   131     131      2.000     -10.066 au  C             1.00      1 S               6
                        (    -273.921 eV)
   132     132      2.000      -0.501 au  C             1.00      2 S               6
                        (     -13.620 eV)
   133     133       --         0.373 au  C             1.00      3 S               6
                        (      10.158 eV)
   134     134       --         5.405 au  C             1.00      4 S               6
                        (     147.073 eV)
   135     135       --        49.848 au  C             1.00      5 S               6
                        (    1356.422 eV)
   136     136      0.667      -0.193 au  C             1.00      1 P:x             6
                        (      -5.239 eV)
   137     137       --         0.169 au  C             1.00      2 P:x             6
                        (       4.589 eV)
   138     138       --         2.013 au  C             1.00      3 P:x             6
                        (      54.789 eV)
   139     139      0.667      -0.193 au  C             1.00      1 P:y             6
                        (      -5.239 eV)
   140     140       --         0.169 au  C             1.00      2 P:y             6
                        (       4.589 eV)
   141     141       --         2.013 au  C             1.00      3 P:y             6
                        (      54.789 eV)
   142     142      0.667      -0.193 au  C             1.00      1 P:z             6
                        (      -5.239 eV)
   143     143       --         0.169 au  C             1.00      2 P:z             6
                        (       4.589 eV)
   144     144       --         2.013 au  C             1.00      3 P:z             6
                        (      54.789 eV)
   145     145       --         1.243 au  C             1.00      1 D:z2            6
                        (      33.824 eV)
   146     146       --         1.243 au  C             1.00      1 D:x2-y2         6
                        (      33.824 eV)
   147     147       --         1.243 au  C             1.00      1 D:xy            6
                        (      33.824 eV)
   148     148       --         1.243 au  C             1.00      1 D:xz            6
                        (      33.824 eV)
   149     149       --         1.243 au  C             1.00      1 D:yz            6
                        (      33.824 eV)
   150     150       --         4.016 au  C             1.00      1 F:z3            6
                        (     109.271 eV)
   151     151       --         4.016 au  C             1.00      1 F:z             6
                        (     109.271 eV)
   152     152       --         4.016 au  C             1.00      1 F:xyz           6
                        (     109.271 eV)
   153     153       --         4.016 au  C             1.00      1 F:z2x           6
                        (     109.271 eV)
   154     154       --         4.016 au  C             1.00      1 F:z2y           6
                        (     109.271 eV)
   155     155       --         4.016 au  C             1.00      1 F:x             6
                        (     109.271 eV)
   156     156       --         4.016 au  C             1.00      1 F:y             6
                        (     109.271 eV)
   157     157      2.000     -10.066 au  C             1.00      1 S               7
                        (    -273.921 eV)
   158     158      2.000      -0.501 au  C             1.00      2 S               7
                        (     -13.620 eV)
   159     159       --         0.373 au  C             1.00      3 S               7
                        (      10.158 eV)
   160     160       --         5.405 au  C             1.00      4 S               7
                        (     147.073 eV)
   161     161       --        49.848 au  C             1.00      5 S               7
                        (    1356.422 eV)
   162     162      0.667      -0.193 au  C             1.00      1 P:x             7
                        (      -5.239 eV)
   163     163       --         0.169 au  C             1.00      2 P:x             7
                        (       4.589 eV)
   164     164       --         2.013 au  C             1.00      3 P:x             7
                        (      54.789 eV)
   165     165      0.667      -0.193 au  C             1.00      1 P:y             7
                        (      -5.239 eV)
   166     166       --         0.169 au  C             1.00      2 P:y             7
                        (       4.589 eV)
   167     167       --         2.013 au  C             1.00      3 P:y             7
                        (      54.789 eV)
   168     168      0.667      -0.193 au  C             1.00      1 P:z             7
                        (      -5.239 eV)
   169     169       --         0.169 au  C             1.00      2 P:z             7
                        (       4.589 eV)
   170     170       --         2.013 au  C             1.00      3 P:z             7
                        (      54.789 eV)
   171     171       --         1.243 au  C             1.00      1 D:z2            7
                        (      33.824 eV)
   172     172       --         1.243 au  C             1.00      1 D:x2-y2         7
                        (      33.824 eV)
   173     173       --         1.243 au  C             1.00      1 D:xy            7
                        (      33.824 eV)
   174     174       --         1.243 au  C             1.00      1 D:xz            7
                        (      33.824 eV)
   175     175       --         1.243 au  C             1.00      1 D:yz            7
                        (      33.824 eV)
   176     176       --         4.016 au  C             1.00      1 F:z3            7
                        (     109.271 eV)
   177     177       --         4.016 au  C             1.00      1 F:z             7
                        (     109.271 eV)
   178     178       --         4.016 au  C             1.00      1 F:xyz           7
                        (     109.271 eV)
   179     179       --         4.016 au  C             1.00      1 F:z2x           7
                        (     109.271 eV)
   180     180       --         4.016 au  C             1.00      1 F:z2y           7
                        (     109.271 eV)
   181     181       --         4.016 au  C             1.00      1 F:x             7
                        (     109.271 eV)
   182     182       --         4.016 au  C             1.00      1 F:y             7
                        (     109.271 eV)
   183     183      2.000     -18.941 au  O             1.00      1 S               8
                        (    -515.403 eV)
   184     184      2.000      -0.876 au  O             1.00      2 S               8
                        (     -23.838 eV)
   185     185       --         0.791 au  O             1.00      3 S               8
                        (      21.524 eV)
   186     186       --        13.422 au  O             1.00      4 S               8
                        (     365.226 eV)
   187     187       --       121.561 au  O             1.00      5 S               8
                        (    3307.838 eV)
   188     188      1.333      -0.331 au  O             1.00      1 P:x             8
                        (      -9.020 eV)
   189     189       --         0.347 au  O             1.00      2 P:x             8
                        (       9.437 eV)
   190     190       --         3.820 au  O             1.00      3 P:x             8
                        (     103.939 eV)
   191     191      1.333      -0.331 au  O             1.00      1 P:y             8
                        (      -9.020 eV)
   192     192       --         0.347 au  O             1.00      2 P:y             8
                        (       9.437 eV)
   193     193       --         3.820 au  O             1.00      3 P:y             8
                        (     103.939 eV)
   194     194      1.333      -0.331 au  O             1.00      1 P:z             8
                        (      -9.020 eV)
   195     195       --         0.347 au  O             1.00      2 P:z             8
                        (       9.437 eV)
   196     196       --         3.820 au  O             1.00      3 P:z             8
                        (     103.939 eV)
   197     197       --         1.071 au  O             1.00      1 D:z2            8
                        (      29.134 eV)
   198     198       --         1.071 au  O             1.00      1 D:x2-y2         8
                        (      29.134 eV)
   199     199       --         1.071 au  O             1.00      1 D:xy            8
                        (      29.134 eV)
   200     200       --         1.071 au  O             1.00      1 D:xz            8
                        (      29.134 eV)
   201     201       --         1.071 au  O             1.00      1 D:yz            8
                        (      29.134 eV)
   202     202       --         3.359 au  O             1.00      1 F:z3            8
                        (      91.410 eV)
   203     203       --         3.359 au  O             1.00      1 F:z             8
                        (      91.410 eV)
   204     204       --         3.359 au  O             1.00      1 F:xyz           8
                        (      91.410 eV)
   205     205       --         3.359 au  O             1.00      1 F:z2x           8
                        (      91.410 eV)
   206     206       --         3.359 au  O             1.00      1 F:z2y           8
                        (      91.410 eV)
   207     207       --         3.359 au  O             1.00      1 F:x             8
                        (      91.410 eV)
   208     208       --         3.359 au  O             1.00      1 F:y             8
                        (      91.410 eV)
   209     209      2.000     -14.160 au  N             1.00      1 S               9
                        (    -385.319 eV)
   210     210      2.000      -0.678 au  N             1.00      2 S               9
                        (     -18.450 eV)
   211     211       --         0.517 au  N             1.00      3 S               9
                        (      14.073 eV)
   212     212       --         6.872 au  N             1.00      4 S               9
                        (     186.990 eV)
   213     213       --        63.432 au  N             1.00      5 S               9
                        (    1726.082 eV)
   214     214      1.000      -0.260 au  N             1.00      1 P:x             9
                        (      -7.062 eV)
   215     215       --         0.281 au  N             1.00      2 P:x             9
                        (       7.649 eV)
   216     216       --         3.275 au  N             1.00      3 P:x             9
                        (      89.105 eV)
   217     217      1.000      -0.260 au  N             1.00      1 P:y             9
                        (      -7.062 eV)
   218     218       --         0.281 au  N             1.00      2 P:y             9
                        (       7.649 eV)
   219     219       --         3.275 au  N             1.00      3 P:y             9
                        (      89.105 eV)
   220     220      1.000      -0.260 au  N             1.00      1 P:z             9
                        (      -7.062 eV)
   221     221       --         0.281 au  N             1.00      2 P:z             9
                        (       7.649 eV)
   222     222       --         3.275 au  N             1.00      3 P:z             9
                        (      89.105 eV)
   223     223       --         1.250 au  N             1.00      1 D:z2            9
                        (      34.005 eV)
   224     224       --         1.250 au  N             1.00      1 D:x2-y2         9
                        (      34.005 eV)
   225     225       --         1.250 au  N             1.00      1 D:xy            9
                        (      34.005 eV)
   226     226       --         1.250 au  N             1.00      1 D:xz            9
                        (      34.005 eV)
   227     227       --         1.250 au  N             1.00      1 D:yz            9
                        (      34.005 eV)
   228     228       --         4.013 au  N             1.00      1 F:z3            9
                        (     109.190 eV)
   229     229       --         4.013 au  N             1.00      1 F:z             9
                        (     109.190 eV)
   230     230       --         4.013 au  N             1.00      1 F:xyz           9
                        (     109.190 eV)
   231     231       --         4.013 au  N             1.00      1 F:z2x           9
                        (     109.190 eV)
   232     232       --         4.013 au  N             1.00      1 F:z2y           9
                        (     109.190 eV)
   233     233       --         4.013 au  N             1.00      1 F:x             9
                        (     109.190 eV)
   234     234       --         4.013 au  N             1.00      1 F:y             9
                        (     109.190 eV)
   235     235      2.000    -488.642 au  Br            1.00      1 S              10
                        (  -13296.634 eV)
   236     236      2.000     -63.585 au  Br            1.00      2 S              10
                        (   -1730.246 eV)
   237     237      2.000      -8.709 au  Br            1.00      3 S              10
                        (    -236.987 eV)
   238     238      2.000      -0.733 au  Br            1.00      4 S              10
                        (     -19.946 eV)
   239     239       --         0.224 au  Br            1.00      5 S              10
                        (       6.099 eV)
   240     240       --         2.414 au  Br            1.00      6 S              10
                        (      65.683 eV)
   241     241       --        13.546 au  Br            1.00      7 S              10
                        (     368.609 eV)
   242     242       --       615.209 au  Br            1.00      8 S              10
                        (   16740.684 eV)
   243     243      2.000     -56.116 au  Br            1.00      1 P:x            10
                        (   -1526.987 eV)
   244     244      2.000      -6.365 au  Br            1.00      2 P:x            10
                        (    -173.205 eV)
   245     245      1.667      -0.284 au  Br            1.00      3 P:x            10
                        (      -7.716 eV)
   246     246       --         0.137 au  Br            1.00      4 P:x            10
                        (       3.720 eV)
   247     247       --         1.208 au  Br            1.00      5 P:x            10
                        (      32.874 eV)
   248     248       --         8.734 au  Br            1.00      6 P:x            10
                        (     237.661 eV)
   249     249       --        95.627 au  Br            1.00      7 P:x            10
                        (    2602.141 eV)
   250     250      2.000     -56.116 au  Br            1.00      1 P:y            10
                        (   -1526.987 eV)
   251     251      2.000      -6.365 au  Br            1.00      2 P:y            10
                        (    -173.205 eV)
   252     252      1.667      -0.284 au  Br            1.00      3 P:y            10
                        (      -7.716 eV)
   253     253       --         0.137 au  Br            1.00      4 P:y            10
                        (       3.720 eV)
   254     254       --         1.208 au  Br            1.00      5 P:y            10
                        (      32.874 eV)
   255     255       --         8.734 au  Br            1.00      6 P:y            10
                        (     237.661 eV)
   256     256       --        95.627 au  Br            1.00      7 P:y            10
                        (    2602.141 eV)
   257     257      2.000     -56.116 au  Br            1.00      1 P:z            10
                        (   -1526.987 eV)
   258     258      2.000      -6.365 au  Br            1.00      2 P:z            10
                        (    -173.205 eV)
   259     259      1.667      -0.284 au  Br            1.00      3 P:z            10
                        (      -7.716 eV)
   260     260       --         0.137 au  Br            1.00      4 P:z            10
                        (       3.720 eV)
   261     261       --         1.208 au  Br            1.00      5 P:z            10
                        (      32.874 eV)
   262     262       --         8.734 au  Br            1.00      6 P:z            10
                        (     237.661 eV)
   263     263       --        95.627 au  Br            1.00      7 P:z            10
                        (    2602.141 eV)
   264     264      2.000      -2.452 au  Br            1.00      1 D:z2           10
                        (     -66.719 eV)
   265     265       --         0.270 au  Br            1.00      2 D:z2           10
                        (       7.341 eV)
   266     266       --         2.706 au  Br            1.00      3 D:z2           10
                        (      73.633 eV)
   267     267       --        20.525 au  Br            1.00      4 D:z2           10
                        (     558.519 eV)
   268     268      2.000      -2.452 au  Br            1.00      1 D:x2-y2        10
                        (     -66.719 eV)
   269     269       --         0.270 au  Br            1.00      2 D:x2-y2        10
                        (       7.341 eV)
   270     270       --         2.706 au  Br            1.00      3 D:x2-y2        10
                        (      73.633 eV)
   271     271       --        20.525 au  Br            1.00      4 D:x2-y2        10
                        (     558.519 eV)
   272     272      2.000      -2.452 au  Br            1.00      1 D:xy           10
                        (     -66.719 eV)
   273     273       --         0.270 au  Br            1.00      2 D:xy           10
                        (       7.341 eV)
   274     274       --         2.706 au  Br            1.00      3 D:xy           10
                        (      73.633 eV)
   275     275       --        20.525 au  Br            1.00      4 D:xy           10
                        (     558.519 eV)
   276     276      2.000      -2.452 au  Br            1.00      1 D:xz           10
                        (     -66.719 eV)
   277     277       --         0.270 au  Br            1.00      2 D:xz           10
                        (       7.341 eV)
   278     278       --         2.706 au  Br            1.00      3 D:xz           10
                        (      73.633 eV)
   279     279       --        20.525 au  Br            1.00      4 D:xz           10
                        (     558.519 eV)
   280     280      2.000      -2.452 au  Br            1.00      1 D:yz           10
                        (     -66.719 eV)
   281     281       --         0.270 au  Br            1.00      2 D:yz           10
                        (       7.341 eV)
   282     282       --         2.706 au  Br            1.00      3 D:yz           10
                        (      73.633 eV)
   283     283       --        20.525 au  Br            1.00      4 D:yz           10
                        (     558.519 eV)
   284     284       --         0.857 au  Br            1.00      1 F:z3           10
                        (      23.313 eV)
   285     285       --         0.857 au  Br            1.00      1 F:z            10
                        (      23.313 eV)
   286     286       --         0.857 au  Br            1.00      1 F:xyz          10
                        (      23.313 eV)
   287     287       --         0.857 au  Br            1.00      1 F:z2x          10
                        (      23.313 eV)
   288     288       --         0.857 au  Br            1.00      1 F:z2y          10
                        (      23.313 eV)
   289     289       --         0.857 au  Br            1.00      1 F:x            10
                        (      23.313 eV)
   290     290       --         0.857 au  Br            1.00      1 F:y            10
                        (      23.313 eV)
   291     291      1.000      -0.240 au  H             1.00      1 S              11
                        (      -6.532 eV)
   292     292       --         0.088 au  H             1.00      2 S              11
                        (       2.394 eV)
   293     293       --         1.502 au  H             1.00      3 S              11
                        (      40.869 eV)
   294     294       --         0.406 au  H             1.00      1 P:x            11
                        (      11.051 eV)
   295     295       --         0.406 au  H             1.00      1 P:y            11
                        (      11.051 eV)
   296     296       --         0.406 au  H             1.00      1 P:z            11
                        (      11.051 eV)
   297     297       --         2.569 au  H             1.00      1 D:z2           11
                        (      69.917 eV)
   298     298       --         2.569 au  H             1.00      1 D:x2-y2        11
                        (      69.917 eV)
   299     299       --         2.569 au  H             1.00      1 D:xy           11
                        (      69.917 eV)
   300     300       --         2.569 au  H             1.00      1 D:xz           11
                        (      69.917 eV)
   301     301       --         2.569 au  H             1.00      1 D:yz           11
                        (      69.917 eV)
   302     302      1.000      -0.240 au  H             1.00      1 S              12
                        (      -6.532 eV)
   303     303       --         0.088 au  H             1.00      2 S              12
                        (       2.394 eV)
   304     304       --         1.502 au  H             1.00      3 S              12
                        (      40.869 eV)
   305     305       --         0.406 au  H             1.00      1 P:x            12
                        (      11.051 eV)
   306     306       --         0.406 au  H             1.00      1 P:y            12
                        (      11.051 eV)
   307     307       --         0.406 au  H             1.00      1 P:z            12
                        (      11.051 eV)
   308     308       --         2.569 au  H             1.00      1 D:z2           12
                        (      69.917 eV)
   309     309       --         2.569 au  H             1.00      1 D:x2-y2        12
                        (      69.917 eV)
   310     310       --         2.569 au  H             1.00      1 D:xy           12
                        (      69.917 eV)
   311     311       --         2.569 au  H             1.00      1 D:xz           12
                        (      69.917 eV)
   312     312       --         2.569 au  H             1.00      1 D:yz           12
                        (      69.917 eV)
   313     313      1.000      -0.240 au  H             1.00      1 S              13
                        (      -6.532 eV)
   314     314       --         0.088 au  H             1.00      2 S              13
                        (       2.394 eV)
   315     315       --         1.502 au  H             1.00      3 S              13
                        (      40.869 eV)
   316     316       --         0.406 au  H             1.00      1 P:x            13
                        (      11.051 eV)
   317     317       --         0.406 au  H             1.00      1 P:y            13
                        (      11.051 eV)
   318     318       --         0.406 au  H             1.00      1 P:z            13
                        (      11.051 eV)
   319     319       --         2.569 au  H             1.00      1 D:z2           13
                        (      69.917 eV)
   320     320       --         2.569 au  H             1.00      1 D:x2-y2        13
                        (      69.917 eV)
   321     321       --         2.569 au  H             1.00      1 D:xy           13
                        (      69.917 eV)
   322     322       --         2.569 au  H             1.00      1 D:xz           13
                        (      69.917 eV)
   323     323       --         2.569 au  H             1.00      1 D:yz           13
                        (      69.917 eV)
   324     324      1.000      -0.240 au  H             1.00      1 S              14
                        (      -6.532 eV)
   325     325       --         0.088 au  H             1.00      2 S              14
                        (       2.394 eV)
   326     326       --         1.502 au  H             1.00      3 S              14
                        (      40.869 eV)
   327     327       --         0.406 au  H             1.00      1 P:x            14
                        (      11.051 eV)
   328     328       --         0.406 au  H             1.00      1 P:y            14
                        (      11.051 eV)
   329     329       --         0.406 au  H             1.00      1 P:z            14
                        (      11.051 eV)
   330     330       --         2.569 au  H             1.00      1 D:z2           14
                        (      69.917 eV)
   331     331       --         2.569 au  H             1.00      1 D:x2-y2        14
                        (      69.917 eV)
   332     332       --         2.569 au  H             1.00      1 D:xy           14
                        (      69.917 eV)
   333     333       --         2.569 au  H             1.00      1 D:xz           14
                        (      69.917 eV)
   334     334       --         2.569 au  H             1.00      1 D:yz           14
                        (      69.917 eV)



 ================================
 (Slater-type)  F U N C T I O N S  ***  (Basis and Fit)  ***
 ================================
  

 Atom Type    1  (C)
 ==============

 Valence Basis Sets:  10
 -----------------------
   1 S    7.680000
   1 S    5.000000
   2 S    1.280000
   2 S    2.100000
   2 S    4.600000
   2 P    0.820000
   2 P    1.480000
   2 P    2.940000
   3 D    2.200000
   4 F    3.300000

 Atom Type    2  (O)
 ==============

 Valence Basis Sets:  10
 -----------------------
   1 S    9.800000
   1 S    6.800000
   2 S    7.580000
   2 S    2.880000
   2 S    1.720000
   2 P    4.080000
   2 P    2.080000
   2 P    1.120000
   3 D    2.000000
   4 F    3.000000

 Atom Type    3  (N)
 ==============

 Valence Basis Sets:  10
 -----------------------
   1 S    8.740000
   1 S    5.900000
   2 S    5.150000
   2 S    2.500000
   2 S    1.500000
   2 P    3.680000
   2 P    1.880000
   2 P    1.000000
   3 D    2.200000
   4 F    3.300000

 Atom Type    4  (Br)
 ==============

 Valence Basis Sets:  20
 -----------------------
   1 S   41.300000
   1 S   32.800000
   2 S   13.900000
   2 P   19.450000
   2 P   13.100000
   3 S    7.200000
   3 S    4.950000
   3 P    7.900000
   3 P    5.050000
   3 D   10.900000
   3 D    6.050000
   3 D    3.500000
   4 S    4.500000
   4 S    2.800000
   4 S    1.800000
   4 P    3.250000
   4 P    1.950000
   4 P    1.200000
   4 D    1.800000
   4 F    1.800000

 Atom Type    5  (H)
 ==============

 Valence Basis Sets:   5
 -----------------------
   1 S    0.690000
   1 S    0.920000
   1 S    1.580000
   2 P    1.250000
   3 D    2.500000


 BAS: List of all Elementary Cartesian Basis Functions
 =====================================================

 The numbering in the list below (to the right of the function characteristics) is referred
 to in print-outs of MO eigenvectors and Mulliken populations in the BAS representation
 (as contrasted to the SFO representation).

 Notes:
 1. The functions are characterized by a polynomial prefactor (powers of x,y,z and r) and
    an exponential decay factor alpha.
 2. Since the basis sets are specific for an atom TYPE, the individual functions occur on
    all atoms of that type.
 3. The word 'Core' in the left margin signals that it is a Core Function (CF) : not a
    degree of freedom in the valence set, but only used to ensure orthogonalization of
    the other valence basis functions on the frozen Core Orbitals.


 (power of) X  Y  Z  R     Alpha  on Atom
            ==========     =====     ==========

 C                                    1    2    3    4    5    6    7
                                  ---------------------------------------------------------------------------
            0  0  0  0     7.680      1   31   61   91  121  151  181
            0  0  0  0     5.000      2   32   62   92  122  152  182
            0  0  0  1     1.280      3   33   63   93  123  153  183
            0  0  0  1     2.100      4   34   64   94  124  154  184
            0  0  0  1     4.600      5   35   65   95  125  155  185
            1  0  0  0     0.820      6   36   66   96  126  156  186
            0  1  0  0     0.820      7   37   67   97  127  157  187
            0  0  1  0     0.820      8   38   68   98  128  158  188
            1  0  0  0     1.480      9   39   69   99  129  159  189
            0  1  0  0     1.480     10   40   70  100  130  160  190
            0  0  1  0     1.480     11   41   71  101  131  161  191
            1  0  0  0     2.940     12   42   72  102  132  162  192
            0  1  0  0     2.940     13   43   73  103  133  163  193
            0  0  1  0     2.940     14   44   74  104  134  164  194
            2  0  0  0     2.200     15   45   75  105  135  165  195
            1  1  0  0     2.200     16   46   76  106  136  166  196
            1  0  1  0     2.200     17   47   77  107  137  167  197
            0  2  0  0     2.200     18   48   78  108  138  168  198
            0  1  1  0     2.200     19   49   79  109  139  169  199
            0  0  2  0     2.200     20   50   80  110  140  170  200
            3  0  0  0     3.300     21   51   81  111  141  171  201
            2  1  0  0     3.300     22   52   82  112  142  172  202
            2  0  1  0     3.300     23   53   83  113  143  173  203
            1  2  0  0     3.300     24   54   84  114  144  174  204
            1  1  1  0     3.300     25   55   85  115  145  175  205
            1  0  2  0     3.300     26   56   86  116  146  176  206
            0  3  0  0     3.300     27   57   87  117  147  177  207
            0  2  1  0     3.300     28   58   88  118  148  178  208
            0  1  2  0     3.300     29   59   89  119  149  179  209
            0  0  3  0     3.300     30   60   90  120  150  180  210

 O                                    8
                                  ---------------------------------------------------------------------------
            0  0  0  0     9.800    211
            0  0  0  0     6.800    212
            0  0  0  1     7.580    213
            0  0  0  1     2.880    214
            0  0  0  1     1.720    215
            1  0  0  0     4.080    216
            0  1  0  0     4.080    217
            0  0  1  0     4.080    218
            1  0  0  0     2.080    219
            0  1  0  0     2.080    220
            0  0  1  0     2.080    221
            1  0  0  0     1.120    222
            0  1  0  0     1.120    223
            0  0  1  0     1.120    224
            2  0  0  0     2.000    225
            1  1  0  0     2.000    226
            1  0  1  0     2.000    227
            0  2  0  0     2.000    228
            0  1  1  0     2.000    229
            0  0  2  0     2.000    230
            3  0  0  0     3.000    231
            2  1  0  0     3.000    232
            2  0  1  0     3.000    233
            1  2  0  0     3.000    234
            1  1  1  0     3.000    235
            1  0  2  0     3.000    236
            0  3  0  0     3.000    237
            0  2  1  0     3.000    238
            0  1  2  0     3.000    239
            0  0  3  0     3.000    240

 N                                    9
                                  ---------------------------------------------------------------------------
            0  0  0  0     8.740    241
            0  0  0  0     5.900    242
            0  0  0  1     5.150    243
            0  0  0  1     2.500    244
            0  0  0  1     1.500    245
            1  0  0  0     3.680    246
            0  1  0  0     3.680    247
            0  0  1  0     3.680    248
            1  0  0  0     1.880    249
            0  1  0  0     1.880    250
            0  0  1  0     1.880    251
            1  0  0  0     1.000    252
            0  1  0  0     1.000    253
            0  0  1  0     1.000    254
            2  0  0  0     2.200    255
            1  1  0  0     2.200    256
            1  0  1  0     2.200    257
            0  2  0  0     2.200    258
            0  1  1  0     2.200    259
            0  0  2  0     2.200    260
            3  0  0  0     3.300    261
            2  1  0  0     3.300    262
            2  0  1  0     3.300    263
            1  2  0  0     3.300    264
            1  1  1  0     3.300    265
            1  0  2  0     3.300    266
            0  3  0  0     3.300    267
            0  2  1  0     3.300    268
            0  1  2  0     3.300    269
            0  0  3  0     3.300    270

 Br                                  10
                                  ---------------------------------------------------------------------------
            0  0  0  0    41.300    271
            0  0  0  0    32.800    272
            0  0  0  1    13.900    273
            1  0  0  0    19.450    274
            0  1  0  0    19.450    275
            0  0  1  0    19.450    276
            1  0  0  0    13.100    277
            0  1  0  0    13.100    278
            0  0  1  0    13.100    279
            0  0  0  2     7.200    280
            0  0  0  2     4.950    281
            1  0  0  1     7.900    282
            0  1  0  1     7.900    283
            0  0  1  1     7.900    284
            1  0  0  1     5.050    285
            0  1  0  1     5.050    286
            0  0  1  1     5.050    287
            2  0  0  0    10.900    288
            1  1  0  0    10.900    289
            1  0  1  0    10.900    290
            0  2  0  0    10.900    291
            0  1  1  0    10.900    292
            0  0  2  0    10.900    293
            2  0  0  0     6.050    294
            1  1  0  0     6.050    295
            1  0  1  0     6.050    296
            0  2  0  0     6.050    297
            0  1  1  0     6.050    298
            0  0  2  0     6.050    299
            2  0  0  0     3.500    300
            1  1  0  0     3.500    301
            1  0  1  0     3.500    302
            0  2  0  0     3.500    303
            0  1  1  0     3.500    304
            0  0  2  0     3.500    305
            0  0  0  3     4.500    306
            0  0  0  3     2.800    307
            0  0  0  3     1.800    308
            1  0  0  2     3.250    309
            0  1  0  2     3.250    310
            0  0  1  2     3.250    311
            1  0  0  2     1.950    312
            0  1  0  2     1.950    313
            0  0  1  2     1.950    314
            1  0  0  2     1.200    315
            0  1  0  2     1.200    316
            0  0  1  2     1.200    317
            2  0  0  1     1.800    318
            1  1  0  1     1.800    319
            1  0  1  1     1.800    320
            0  2  0  1     1.800    321
            0  1  1  1     1.800    322
            0  0  2  1     1.800    323
            3  0  0  0     1.800    324
            2  1  0  0     1.800    325
            2  0  1  0     1.800    326
            1  2  0  0     1.800    327
            1  1  1  0     1.800    328
            1  0  2  0     1.800    329
            0  3  0  0     1.800    330
            0  2  1  0     1.800    331
            0  1  2  0     1.800    332
            0  0  3  0     1.800    333

 H                                   11   12   13   14
                                  ---------------------------------------------------------------------------
            0  0  0  0     0.690    334  346  358  370
            0  0  0  0     0.920    335  347  359  371
            0  0  0  0     1.580    336  348  360  372
            1  0  0  0     1.250    337  349  361  373
            0  1  0  0     1.250    338  350  362  374
            0  0  1  0     1.250    339  351  363  375
            2  0  0  0     2.500    340  352  364  376
            1  1  0  0     2.500    341  353  365  377
            1  0  1  0     2.500    342  354  366  378
            0  2  0  0     2.500    343  355  367  379
            0  1  1  0     2.500    344  356  368  380
            0  0  2  0     2.500    345  357  369  381

 Total number of charge fitting functions (nprimf)      1126
 Total number of Cartesian basis functions (naos)        381
 Total number of Cartesian core functions  (ncos)          0

 ***************************************************************************************************



                                              ***********************
                                              *  T E C H N I C A L  *
                                              ***********************
  



 =============================================================
 P A R A L L E L I Z A T I O N  and  V E C T O R I Z A T I O N
 =============================================================
  
 Nr of parallel processes:                                1
 Maximum vector length in NumInt loops:                 128



 =====================
 S C F   U P D A T E S
 =====================
  
 Max. nr. of cycles:                               200
 Convergence criterion:                              0.0000010000
   secondary criterion:                              0.0010000000

 Mix parameter (when DIIS does not apply):           0.2000000000
 Mixed ADIIS+SDIIS will be used                  
    Max number of expansion vectors:                10
    Pure ADIIS when Max([F,P]) is above              0.1000000000
    Pure SDIIS when Max([F,P]) is below              0.0010000000
 Automatic ElectronSmearing (in case of problematic SCF convergence) disabled



 =================
 P R E C I S I O N  ***  (General: NumInt, NeglectFunctionTails, ...)  ***
 =================
  

 NumInt:           Target precision:                 4.0000000000
 -------           Initial precision:                4.0000000000
                   Min. precision (optimization):    4.0000000000

 Neglect Functions:          Basis functions:        0.1000000000E-05
 ------------------          Fit functions:          0.1000000000E-05



 ===========================
 L I N E A R   S C A L I N G
 ===========================
  

 Cut-off radii density fit:                        0.1000000000E-07
 Overlap cut-off criterion AO matrix elements:     0.1000000000E-05
 Cut-offs for Coulomb potential and fitted density:0.1000000000E-07
 Cut-off criterion for Coulomb multipole terms:    0.1000000000E-07
 Progressive Convergence parameter:                 0.000000000    
 ***************************************************************************************************



                                            ***************************
                                            *  C O M P U T A T I O N  *
                                            ***************************
  

 Number of elements of the density matrix on this node (used, total):     72771     72771



 ===========================================
 Numerical Integration : Fuzzy Cells (Becke)
 ===========================================
  
 Becke grid quality: NORMAL         
  
 Lebedev angular grid order:             min:  11 max:  23
 Nr. of radial points:                   min:  46 max:  77

 Total nr. of points:      97578
 Nr. of blocks:              763
 Block length:               128
 Nr. of dummy points:         86


 Test of Precision of the Numerical Integration Grid
 ===================================================

 Integral of the Total Core Density:                   0.00000000000000



 ========================
 Density Fitting (zlmFit)
 ========================
  
 ZlmFit Fit Quality: NORMAL         
  
 Max L-expansion:                        min:   6 max:   7
 Nr. of radial interpolation points:     min:  39 max:  72



 =====
 S C F  ***  ScaSCF  ***
 =====
  
 Initial density matrix is calculated as sum of fragments

 CYCLE    1
 SCF Error: norm([F,P])=      7.577496893974, max([F,P])=      1.457941599375
 orbitals (Q,E):
 ---------------
 A :39...58          ( 2.00    -0.4962)  ( 2.00    -0.4904)  ( 2.00    -0.4727)  ( 2.00    -0.4636)
                     ( 2.00    -0.4435)  ( 2.00    -0.4109)  ( 2.00    -0.4037)  ( 2.00    -0.3714)
                     ( 2.00    -0.3061)  ( 2.00    -0.3004)  ( 0.00    -0.2208)  ( 0.00    -0.1817)
                     ( 0.00    -0.1547)  ( 0.00    -0.1034)  ( 0.00    -0.0731)  ( 0.00    -0.0625)
                     ( 0.00    -0.0441)  ( 0.00    -0.0206)  ( 0.00    -0.0184)  ( 0.00    -0.0063)

 CYCLE    2
   MIX coefficients:  0.8000  0.2000
 SCF Error: norm([F,P])=      1.157983788846, max([F,P])=      0.188067759131
 orbitals (Q,E):
 ---------------
 A :39...49          ( 2.00    -0.4426)  ( 2.00    -0.4250)  ( 2.00    -0.4071)  ( 2.00    -0.4057)
                     ( 2.00    -0.3891)  ( 2.00    -0.3608)  ( 2.00    -0.3438)  ( 2.00    -0.3238)
                     ( 2.00    -0.3104)  ( 2.00    -0.2860)  ( 0.00    -0.1754)

 CYCLE    3
  SDIIS (wt  0.000): -0.5165  1.5165
 A-DIIS (wt  1.000):  0.0000  1.0000
  DIIS coefficients:  0.0000  1.0000
 SCF Error: norm([F,P])=      0.541387528297, max([F,P])=      0.076606146828
 orbitals (Q,E):
 ---------------
 A :39...49          ( 2.00    -0.2987)  ( 2.00    -0.2932)  ( 2.00    -0.2786)  ( 2.00    -0.2775)
                     ( 2.00    -0.2527)  ( 2.00    -0.2445)  ( 2.00    -0.2379)  ( 2.00    -0.1923)
                     ( 2.00    -0.1780)  ( 2.00    -0.1461)  ( 0.00    -0.0601)

 CYCLE    4
  SDIIS (wt  0.000):  0.1646  0.3597  0.4757
 A-DIIS (wt  1.000):  0.0000  0.6597  0.3403
  DIIS coefficients:  0.0000  0.6597  0.3403
 SCF Error: norm([F,P])=      0.784752194678, max([F,P])=      0.129632048581
 orbitals (Q,E):
 ---------------
 A :39...49          ( 2.00    -0.3638)  ( 2.00    -0.3431)  ( 2.00    -0.3225)  ( 2.00    -0.3153)
                     ( 2.00    -0.3046)  ( 2.00    -0.2976)  ( 2.00    -0.2786)  ( 2.00    -0.2519)
                     ( 2.00    -0.2461)  ( 2.00    -0.2129)  ( 0.00    -0.1078)

 CYCLE    5
  SDIIS (wt  0.602): -0.0830  0.3887  0.1125  0.5818
 A-DIIS (wt  0.398):  0.0000  0.0000  0.0000  1.0000
  DIIS coefficients: -0.0500  0.2341  0.0678  0.7481
 SCF Error: norm([F,P])=      0.165548020236, max([F,P])=      0.040368595928
 orbitals (Q,E):
 ---------------
 A :39...49          ( 2.00    -0.3766)  ( 2.00    -0.3609)  ( 2.00    -0.3339)  ( 2.00    -0.3186)
                     ( 2.00    -0.3145)  ( 2.00    -0.3128)  ( 2.00    -0.2957)  ( 2.00    -0.2652)
                     ( 2.00    -0.2586)  ( 2.00    -0.2269)  ( 0.00    -0.1251)

 CYCLE    6
  SDIIS (wt  0.000): -0.0350  0.2080  0.0572  0.5432  0.2266
 A-DIIS (wt  1.000):  0.0000  0.0000  0.0000  0.6481  0.3519
  DIIS coefficients:  0.0000  0.0000  0.0000  0.6481  0.3519
 SCF Error: norm([F,P])=      0.242032119845, max([F,P])=      0.081948992909
 orbitals (Q,E):
 ---------------
 A :39...49          ( 2.00    -0.3734)  ( 2.00    -0.3569)  ( 2.00    -0.3358)  ( 2.00    -0.3294)
                     ( 2.00    -0.3212)  ( 2.00    -0.3142)  ( 2.00    -0.2954)  ( 2.00    -0.2627)
                     ( 2.00    -0.2569)  ( 2.00    -0.2240)  ( 0.00    -0.1195)

 CYCLE    7
  SDIIS (wt  0.819): -0.0063  0.0783  0.0272  0.3993  0.2255  0.2760
 A-DIIS (wt  0.181):  0.0000  0.0000  0.0000  0.1140  0.1312  0.7548
  DIIS coefficients: -0.0052  0.0641  0.0223  0.3476  0.2084  0.3628
 SCF Error: norm([F,P])=      0.094281384396, max([F,P])=      0.018936875008
 orbitals (Q,E):
 ---------------
 A :39...49          ( 2.00    -0.3728)  ( 2.00    -0.3540)  ( 2.00    -0.3315)  ( 2.00    -0.3197)
                     ( 2.00    -0.3139)  ( 2.00    -0.3085)  ( 2.00    -0.2895)  ( 2.00    -0.2600)
                     ( 2.00    -0.2554)  ( 2.00    -0.2222)  ( 0.00    -0.1177)

 CYCLE    8
  SDIIS (wt  0.927):  0.0005  0.0189  0.0090  0.1801  0.1019  0.2603  0.4293
 A-DIIS (wt  0.073):  0.0000  0.0000  0.0000  0.0000  0.0000  0.1233  0.8767
  DIIS coefficients:  0.0005  0.0175  0.0083  0.1669  0.0944  0.2502  0.4621
 SCF Error: norm([F,P])=      0.030653633971, max([F,P])=      0.008254331505
 orbitals (Q,E):
 ---------------
 A :39...49          ( 2.00    -0.3719)  ( 2.00    -0.3541)  ( 2.00    -0.3313)  ( 2.00    -0.3217)
                     ( 2.00    -0.3147)  ( 2.00    -0.3089)  ( 2.00    -0.2899)  ( 2.00    -0.2598)
                     ( 2.00    -0.2549)  ( 2.00    -0.2217)  ( 0.00    -0.1173)

 CYCLE    9
  SDIIS (wt  0.977): -0.0019  0.0100  0.0021  0.0883  0.0490  0.1483  0.3395  0.3648
 A-DIIS (wt  0.023):  0.0000  0.0000  0.0000  0.0000  0.0000  0.0000  0.1081  0.8919
  DIIS coefficients: -0.0019  0.0098  0.0020  0.0862  0.0479  0.1449  0.3341  0.3770
 SCF Error: norm([F,P])=      0.009094678550, max([F,P])=      0.003298228898
 orbitals (Q,E):
 ---------------
 A :39...49          ( 2.00    -0.3720)  ( 2.00    -0.3541)  ( 2.00    -0.3316)  ( 2.00    -0.3215)
                     ( 2.00    -0.3148)  ( 2.00    -0.3089)  ( 2.00    -0.2899)  ( 2.00    -0.2598)
                     ( 2.00    -0.2550)  ( 2.00    -0.2218)  ( 0.00    -0.1174)

 CYCLE   10
  SDIIS (wt  0.999): -0.0014  0.0055  0.0006  0.0497  0.0281  0.0881  0.2166  0.2838  0.3292
 A-DIIS (wt  0.001):  0.0000  0.0000  0.0000  0.0000  0.0000  0.0000  0.0000  0.0699  0.9301
  DIIS coefficients: -0.0014  0.0055  0.0006  0.0497  0.0281  0.0880  0.2164  0.2837  0.3295
 SCF Error: norm([F,P])=      0.002716826141, max([F,P])=      0.001050026938
 orbitals (Q,E):
 ---------------
 A :39...49          ( 2.00    -0.3721)  ( 2.00    -0.3540)  ( 2.00    -0.3315)  ( 2.00    -0.3215)
                     ( 2.00    -0.3148)  ( 2.00    -0.3090)  ( 2.00    -0.2899)  ( 2.00    -0.2598)
                     ( 2.00    -0.2550)  ( 2.00    -0.2218)  ( 0.00    -0.1174)

 CYCLE   11
  SDIIS (wt  1.000): -0.0005  0.0015  0.0001  0.0143  0.0085  0.0279  0.0735  0.1102  0.2371  0.5273
  DIIS coefficients: -0.0005  0.0015  0.0001  0.0143  0.0085  0.0279  0.0735  0.1102  0.2371  0.5273
 SCF Error: norm([F,P])=      0.000810103344, max([F,P])=      0.000190672078
 orbitals (Q,E):
 ---------------
[...]
                                   -2.58%     2 P:y             4.589  0.00     3 C
                                    2.15%     2 D:xy            7.341  0.00    10 Br
                                    2.13%     2 P:z             4.589  0.00     3 C
                                   -1.87%     3 S              10.158  0.00     7 C
                                   -1.86%     3 S              14.073  0.00     9 N
                                    1.72%     1 S              -6.532  1.00    13 H
                                   -1.66%     2 S             -13.620  2.00     5 C
                                    1.63%     1 P:z            -5.239  0.67     7 C
                                   -1.63%     3 S              10.158  0.00     5 C
                                    1.38%     1 P:x            -5.239  0.67     4 C
                                    1.31%     2 P:z             4.589  0.00     7 C
                                    1.27%     1 P:z            -9.020  1.33     8 O
                                    1.23%     2 S               2.394  0.00    11 H
                                    1.12%     2 P:x             4.589  0.00     1 C
                                    1.04%     2 S             -13.620  2.00     7 C
                                    1.03%     2 P:z             4.589  0.00     5 C
       1.750  0.00    59 A         22.52%     2 P:x             4.589  0.00     6 C
                                   15.29%     2 P:z             4.589  0.00     2 C
                                   10.59%     2 P:x             4.589  0.00     3 C
                                    9.71%     1 P:y            -5.239  0.67     2 C
                                   -9.34%     5 S               6.099  0.00    10 Br
                                    6.25%     4 P:x             3.720  0.00    10 Br
                                    6.21%     1 P:y            -5.239  0.67     5 C
                                    5.08%     1 P:z            -5.239  0.67     2 C
                                    4.60%     2 P:x             4.589  0.00     2 C
                                    4.58%     2 P:z             4.589  0.00     1 C
                                   -4.31%     2 S               2.394  0.00    11 H
                                    4.25%     2 P:x             4.589  0.00     7 C
                                    3.74%     1 P:y            -7.062  1.00     9 N
                                    3.45%     1 P:y            -5.239  0.67     4 C
                                   -3.43%     2 P:y             4.589  0.00     1 C
                                    3.43%     2 D:x2-y2         7.341  0.00    10 Br
                                    3.32%     2 P:z             4.589  0.00     4 C
                                    3.31%     2 S             -13.620  2.00     2 C
                                    3.15%     2 P:x             4.589  0.00     5 C
                                    2.84%     1 P:y            -5.239  0.67     3 C
                                   -2.78%     3 S              10.158  0.00     2 C
                                   -2.70%     3 S              14.073  0.00     9 N
                                    2.46%     2 P:x             4.589  0.00     1 C
                                    2.43%     2 P:x             4.589  0.00     4 C
                                    2.29%     2 P:z             4.589  0.00     6 C
                                    2.27%     1 P:z            -5.239  0.67     6 C
                                    1.96%     1 P:z            -5.239  0.67     5 C
                                    1.80%     1 P:x            -5.239  0.67     6 C
                                   -1.52%     3 P:x            -7.716  1.67    10 Br
                                   -1.48%     3 S              10.158  0.00     1 C
                                    1.45%     1 P:x            -5.239  0.67     3 C
                                    1.40%     1 S              -6.532  1.00    13 H
                                   -1.38%     2 P:x             9.437  0.00     8 O
                                   -1.34%     2 P:y             4.589  0.00     4 C
                                   -1.25%     3 S              10.158  0.00     6 C
                                    1.22%     1 S              -6.532  1.00    12 H
                                    1.16%     1 P:x            -9.020  1.33     8 O
                                    1.11%     1 P:y            -9.020  1.33     8 O
                                    1.10%     2 S             -23.838  2.00     8 O
                                   -1.07%     3 S              21.524  0.00     8 O
                                    1.07%     3 S              10.158  0.00     4 C
                                    1.04%     1 P:z            11.051  0.00    12 H
                                   -1.02%     3 S              10.158  0.00     7 C
       2.068  0.00    60 A         27.91%     2 P:z             4.589  0.00     4 C
                                   20.41%     2 P:x             4.589  0.00     6 C
                                   14.87%     2 P:z             4.589  0.00     5 C
                                  -12.16%     5 S               6.099  0.00    10 Br
                                    9.40%     4 P:x             3.720  0.00    10 Br
                                    8.13%     1 P:x            -5.239  0.67     2 C
                                   -8.02%     3 S              14.073  0.00     9 N
                                    6.50%     2 S             -13.620  2.00     4 C
                                   -5.03%     3 S              10.158  0.00     4 C
                                   -4.77%     3 S              10.158  0.00     6 C
                                    4.49%     1 P:z            -5.239  0.67     3 C
                                    4.21%     1 S              -6.532  1.00    12 H
                                    3.96%     4 P:z             3.720  0.00    10 Br
                                    3.90%     1 P:z            -5.239  0.67     4 C
                                   -3.83%     2 S             -13.620  2.00     5 C
                                    3.77%     1 P:z            -5.239  0.67     5 C
                                    3.73%     1 S              -6.532  1.00    13 H
                                    3.27%     2 S             -13.620  2.00     6 C
                                    3.20%     2 P:x             4.589  0.00     2 C
                                    3.16%     2 P:x             4.589  0.00     1 C
                                   -3.01%     3 S              10.158  0.00     5 C
                                    2.79%     1 P:x            -5.239  0.67     7 C
                                    2.22%     2 D:x2-y2         7.341  0.00    10 Br
                                   -2.06%     3 P:x            -7.716  1.67    10 Br
                                   -2.06%     2 P:z             4.589  0.00     1 C
                                    2.00%     1 P:z            -5.239  0.67     1 C
                                    1.94%     1 P:x            -5.239  0.67     3 C
                                    1.60%     2 P:z             4.589  0.00     6 C
                                    1.53%     2 S             -13.620  2.00     3 C
                                    1.42%     2 P:z             4.589  0.00     2 C
                                    1.41%     2 P:x             4.589  0.00     3 C
                                    1.35%     1 P:x            -5.239  0.67     6 C
                                   -1.35%     2 P:x             4.589  0.00     7 C
                                    1.32%     2 D:xz            7.341  0.00    10 Br
                                    1.24%     1 S              -6.532  1.00    14 H
                                   -1.16%     3 S              10.158  0.00     3 C
                                   -1.15%     4 S             -19.946  2.00    10 Br
                                   -1.10%     3 P:z            54.789  0.00     4 C
                                    1.04%     2 D:xy            7.341  0.00    10 Br
                                    1.04%     1 P:y            -5.239  0.67     1 C
                                   -1.03%     2 S               2.394  0.00    12 H



 =======================================================================
 Electrostatic potential at the Nuclei due to electrons and other nuclei
 =======================================================================
  
         Atom                  Potential
         ----                  ---------
     1)   C                  14.75380859
     2)   C                  14.68679697
     3)   O                  22.36648384
     4)   C                  14.68685321
     5)   C                  14.72711184
     6)   C                  14.75416437
     7)   N                  18.43073326
     8)   C                  14.70067909
     9)   Br                180.49263660
    10)   C                  14.75440302
    11)   H                   1.06250630
    12)   H                   1.06640612
    13)   H                   1.06981889
    14)   H                   1.06353736
 Mulliken charges used for AMS results%charges...


    =====================
     CALCULATION RESULTS
    =====================

Energy (hartree)            -3.17549412


--------------
Atomic charges
--------------
  Index   Atom    Charge
      1      C    0.2160
      2      C    0.4828
      3      O   -0.5307
      4      C    0.4991
      5      C   -0.0281
      6      C    0.1108
      7      N   -0.2614
      8      C    0.1913
      9     Br   -0.1433
     10      C    0.2006
     11      H   -0.2001
     12      H   -0.1778
     13      H   -0.1679
     14      H   -0.1911


Dipole moment vector    (Debye):     0.95060244    1.37675092   -3.62348901
              magnitude (Debye):     3.99108515


-----------------------
Molecular orbitals info
-----------------------
n orbitals:              334
n spin:                    1

Note: only printing virtual orbitals with
      energy smaller than HOMO + 100. eV

HOMO (eV):              -6.0368
LUMO (eV):              -3.1953
HOMO-LUMO gap (eV):      2.8415

   Index   Energy (eV)    Occupation
     215       93.9427         0.000       
     214       93.1030         0.000       
     213       91.9612         0.000       
     212       91.1118         0.000       
     211       90.6710         0.000       
     210       90.1428         0.000       
     209       89.8538         0.000       
     208       88.9033         0.000       
     207       87.8839         0.000       
     206       86.8723         0.000       
     205       85.8967         0.000       
     204       85.2392         0.000       
     203       84.5581         0.000       
     202       83.8896         0.000       
     201       82.8734         0.000       
     200       81.8666         0.000       
     199       80.9227         0.000       
     198       80.6927         0.000       
     197       79.6913         0.000       
     196       79.6371         0.000       
     195       78.4345         0.000       
     194       77.2942         0.000       
     193       77.0349         0.000       
     192       76.4739         0.000       
     191       75.4852         0.000       
     190       74.8622         0.000       
     189       74.2832         0.000       
     188       73.5232         0.000       
     187       72.6471         0.000       
     186       72.4602         0.000       
     185       72.3937         0.000       
     184       70.6865         0.000       
     183       68.8503         0.000       
     182       68.6915         0.000       
     181       66.9708         0.000       
     180       66.0385         0.000       
     179       65.3335         0.000       
     178       64.7519         0.000       
     177       64.2641         0.000       
     176       62.9129         0.000       
     175       62.3560         0.000       
     174       61.7389         0.000       
     173       61.0228         0.000       
     172       60.3233         0.000       
     171       59.1199         0.000       
     170       58.2745         0.000       
     169       58.1621         0.000       
     168       57.2857         0.000       
     167       56.1569         0.000       
     166       55.7098         0.000       
     165       55.0896         0.000       
     164       54.4322         0.000       
     163       54.0219         0.000       
     162       53.2080         0.000       
     161       51.3247         0.000       
     160       49.8889         0.000       
     159       48.7508         0.000       
     158       47.5948         0.000       
     157       47.1131         0.000       
     156       46.6067         0.000       
     155       46.1846         0.000       
     154       44.9624         0.000       
     153       44.6660         0.000       
     152       44.3349         0.000       
     151       43.5888         0.000       
     150       43.2854         0.000       
     149       42.0375         0.000       
     148       41.8009         0.000       
     147       41.4084         0.000       
     146       40.9317         0.000       
     145       39.9410         0.000       
     144       39.4373         0.000       
     143       38.8078         0.000       
     142       38.5237         0.000       
     141       37.0483         0.000       
     140       36.7326         0.000       
     139       36.2786         0.000       
     138       35.8033         0.000       
     137       35.3874         0.000       
     136       34.6115         0.000       
     135       34.5722         0.000       
     134       33.9969         0.000       
     133       33.4364         0.000       
     132       32.1693         0.000       
     131       31.5500         0.000       
     130       31.3200         0.000       
     129       30.4962         0.000       
     128       29.8701         0.000       
     127       29.7877         0.000       
     126       28.8409         0.000       
     125       28.7488         0.000       
     124       28.4573         0.000       
     123       27.6083         0.000       
     122       27.2014         0.000       
     121       26.6906         0.000       
     120       26.5265         0.000       
     119       25.8794         0.000       
     118       25.5509         0.000       
     117       24.9647         0.000       
     116       24.5291         0.000       
     115       24.3258         0.000       
     114       23.4963         0.000       
     113       23.3400         0.000       
     112       23.0821         0.000       
     111       22.8546         0.000       
     110       22.5814         0.000       
     109       21.7291         0.000       
     108       21.3006         0.000       
     107       20.7202         0.000       
     106       19.6966         0.000       
     105       19.3274         0.000       
     104       18.6615         0.000       
     103       18.5532         0.000       
     102       17.8737         0.000       
     101       16.8746         0.000       
     100       16.4546         0.000       
      99       16.1609         0.000       
      98       15.4517         0.000       
      97       15.2654         0.000       
      96       15.1145         0.000       
      95       14.3041         0.000       
      94       14.0981         0.000       
      93       13.1108         0.000       
      92       12.2816         0.000       
      91       11.8034         0.000       
      90       11.3407         0.000       
      89       11.0316         0.000       
      88       10.8966         0.000       
      87        9.9597         0.000       
      86        9.5981         0.000       
      85        9.3198         0.000       
      84        9.1009         0.000       
      83        8.3777         0.000       
      82        8.2928         0.000       
      81        7.9962         0.000       
      80        7.8630         0.000       
      79        7.5085         0.000       
      78        7.2120         0.000       
      77        7.0911         0.000       
      76        6.7198         0.000       
      75        6.5162         0.000       
      74        6.0879         0.000       
      73        5.9230         0.000       
      72        5.5390         0.000       
      71        5.1800         0.000       
      70        5.0527         0.000       
      69        4.7827         0.000       
      68        4.5138         0.000       
      67        4.4605         0.000       
      66        4.0909         0.000       
      65        3.6393         0.000       
      64        3.4963         0.000       
      63        2.9798         0.000       
      62        2.7608         0.000       
      61        2.6867         0.000       
      60        2.0684         0.000       
      59        1.7498         0.000       
      58        1.4669         0.000       
      57        0.9887         0.000       
      56        0.8790         0.000       
      55        0.4890         0.000       
      54        0.2861         0.000       
      53       -0.3637         0.000       
      52       -0.7190         0.000       
      51       -1.4001         0.000       
      50       -1.7787         0.000       
      49       -3.1953         0.000 < LUMO
      48       -6.0368         2.000 < HOMO
      47       -6.9402         2.000       
      46       -7.0711         2.000       
      45       -7.8899         2.000       
      44       -8.4077         2.000       
      43       -8.5654         2.000       
      42       -8.7480         2.000       
      41       -9.0213         2.000       
      40       -9.6343         2.000       
      39      -10.1241         2.000       
      38      -10.3467         2.000       
      37      -10.7761         2.000       
      36      -11.0438         2.000       
      35      -11.8561         2.000       
      34      -12.9872         2.000       
      33      -13.7391         2.000       
      32      -14.4602         2.000       
      31      -15.1626         2.000       
      30      -16.2701         2.000       
      29      -18.9472         2.000       
      28      -19.7069         2.000       
      27      -20.6044         2.000       
      26      -21.9899         2.000       
      25      -22.6767         2.000       
      24      -27.3932         2.000       
      23      -66.7168         2.000       
      22      -66.7266         2.000       
      21      -66.9685         2.000       
      20      -66.9996         2.000       
      19      -67.0890         2.000       
      18     -173.2828         2.000       
      17     -173.3253         2.000       
      16     -173.6596         2.000       
      15     -237.1941         2.000       
      14     -270.9880         2.000       
      13     -271.0109         2.000       
      12     -271.2720         2.000       
      11     -271.6675         2.000       
      10     -272.4843         2.000       
       9     -272.6998         2.000       
       8     -272.7017         2.000       
       7     -381.7389         2.000       
       6     -512.3833         2.000       
       5    -1527.3991         2.000       
       4    -1527.4131         2.000       
       3    -1527.5248         2.000       
       2    -1730.5350         2.000       
       1   -13297.0144         2.000       

AMS application finished. Exiting.
NORMAL TERMINATION
     Total cpu time:      48.24
  Total system time:       0.30
 Total elapsed time:      48.86
NORMAL TERMINATION
