srun: Job 662083 step creation temporarily disabled, retrying (Requested nodes are busy)
srun: Job 662083 step creation still disabled, retrying (Requested nodes are busy)
srun: Job 662083 step creation still disabled, retrying (Requested nodes are busy)
srun: Job 662083 step creation still disabled, retrying (Requested nodes are busy)
srun: Job 662083 step creation still disabled, retrying (Requested nodes are busy)
srun: Job 662083 step creation still disabled, retrying (Requested nodes are busy)
srun: Step created for StepId=662083.62

 *******************************************************************************
 *                                                                             *
 *  --------------------------------                                           *
 *   Amsterdam Modeling Suite (AMS)              2026.103                      *
 *  --------------------------------                                           *
 *                                               r260501 2026-05-01 873454b5   *
 *                                                                             *
 *                                                                             *
 *                              =================                              *
 *                              |               |                              *
 *                              |     A M S     |                              *
 *                              |               |                              *
 *                              =================                              *
 *                                                                             *
 *                                                                             *
 *   Online information and documentation:  https://www.scm.com/support/       *
 *   E-mail:  support@scm.com   info@scm.com                                   *
 *                                                                             *
 *   Scientific publications using AMS results must be properly referenced     *
 *   See the User Manuals (or the web site) for recommended citations          *
 *   The terms and conditions of the End User License Agreement apply to       *
 *   the use of AMS, https://www.scm.com/license-terms/                        *
 *                                                                             *
 **********************  x86_64_linux_intel / intelmpi  ************************
 
 Licensed to: Jong-June Jeon / University of Seoul 2026-06-02 13:44:15
 SCM User ID: u30731
  
 AMS 2026.103  RunTime: Jun03-2026 03:38:11  ShM Nodes: 1  Procs: 1

 AMS jobname: c5_fragB_opt
 AMS jobid  : 513296897

 Start   directory: /gpfs/home1/yeseo1ee/projects/eda-asm-prediction/ADF_800/adf_outputs/batch_000/dipolar_000390/
 Results directory: /gpfs/home1/yeseo1ee/projects/eda-asm-prediction/ADF_800/adf_outputs/batch_000/dipolar_000390/c5_fragB_opt.results/
 Scratch directory: /tmp/amstmp_c5_fragB_opt_kid0.513296897/

 RNG seed: -823583965 1342979073 333460738 1314269363 -1001616942 -967469683 -748755339 -1018941411



                      ************************************************************************
                      *  ADF 2026.103  RunTime: Jun03-2026 03:38:11  ShM Nodes: 1  Procs: 1  *
                      ************************************************************************
  

       ***************************
       *  GEOMETRY OPTIMIZATION  *
       ***************************

Optimization Method                    Quasi Newton
Optimization Coordinates               Delocalized Coordinates
Optimize lattice                       F
 
 ------------------------------------------------------
 Convergence criteria (Hartree,Angstrom)
 ------------------------------------------------------
 Maximum gradient               0.000100000000
 Maximum rms gradient           0.000066666667
 Maximum step allowed           0.010000000000
 Maximum rms step allowed       0.006666666667
 Maximum energy change allowe   0.000140000000
 Maximum stress energy allowe   0.000500000000
 
Initial model Hessian                  Automatic Hessian
 
------------------------------------
Quasi-Newton Optimizer Parameters
------------------------------------
Hessian Update Method                  BFGS
Maximum number of steps                  200
First GDIIS cycle                          0
Maximum GDIIS vectors                      0
Trust radius (bohr)                        0.200000
Trust radius varies                        T
Constraints converged at all steps         T
Use projector                              T
 
 Rigid motions settings for: old optimizer
 Atomic rotations (x,y,z):     T T T
 Atomic translations (x,y,z):  T T T
 Tolerance:                  1.000000000000000E-006

--------
Geometry
--------
Formula: C7H4BrNO
Atoms
  Index Symbol   x (angstrom)   y (angstrom)   z (angstrom)
      1      C    -0.04958000     0.88593000    -1.12856000
      2      C    -0.84786000    -0.42956000    -1.13571000
      3      O     0.08560000    -1.32858000    -0.52535000
      4      C     0.32927000    -0.52996000     0.64110000
      5      C    -1.13745000    -0.38202000     1.15858000
      6      C    -1.54294000    -0.23638000     2.49773000
      7      N    -1.85864000    -0.12425000     3.61466000
      8      C    -1.86629000    -0.31266000     0.02512000
      9     Br    -3.68336000     0.02050000    -0.19205000
     10      C     0.72532000     0.81359000    -0.00961000
     11      H    -0.27123000     1.74244000    -1.75935000
     12      H    -1.23602000    -0.80180000    -2.08854000
     13      H     1.03570000    -0.99757000     1.33300000
     14      H     1.22040000     1.62440000     0.52248000

Total System Charge              0.00000


----------------
ADF Engine Input
----------------
 
   Basis
     Type TZ2P
     Core None
   End
   XC
     GGA BLYP
     Dispersion GRIMME3 BJDAMP
   End
   Symmetry NOSYM
   NumericalQuality Normal
   Unrestricted No
   SCF
     Iterations 200
     Converge 1.0e-6
   End
   Save TAPE21
 

 Title: *** (NO TITLE) ***

Challenging geometry: could not add a dihedral for atom    7
 Using automatic Hessian for delocalized coordinates.
 *** GO1_GOStep1 ***

 Energy gradients wrt nuclear displacements
 ==========================================

     Atom      Cartesian (a.u./angstrom)
                 X         Y         Z
 ----------------------------------------
     1 C    -0.025358 -0.012374 -0.036869
     2 C     0.010392 -0.002577  0.023073
     3 O    -0.014006  0.031141  0.013030
     4 C    -0.021345  0.000013 -0.015920
     5 C     0.016774 -0.005482 -0.012233
     6 C    -0.003765  0.001919  0.009878
     7 N     0.001216 -0.001264 -0.007581
     8 C    -0.002791  0.002012 -0.010756
     9 Br    0.009662 -0.002768  0.002518
    10 C     0.042057 -0.021414  0.024568
    11 H    -0.006715  0.003847  0.001410
    12 H    -0.001995  0.000103 -0.004723
    13 H     0.003619  0.000489  0.004062
    14 H    -0.007744  0.006355  0.009542
 ----------------------------------------
 
----------------------------------------------------------------------
Geometry Convergence after Step   1       (Hartree/Angstrom,Angstrom)
----------------------------------------------------------------------
current energy                               -3.17549412 Hartree
energy change                      -3.17549412     0.00014000    F
constrained gradient max            0.04211662     0.00010000    F
constrained gradient rms            0.01452349     0.00006667    F
gradient max                        0.04211626
gradient rms                        0.01452349
cart. step max                      0.03423544     0.01000000    F
cart. step rms                      0.01081120     0.00666667    F
 

--------
Geometry
--------
Formula: C7H4BrNO
Atoms
  Index Symbol   x (angstrom)   y (angstrom)   z (angstrom)
      1      C    -0.05096948     0.89357963    -1.11766405
      2      C    -0.84868067    -0.42937703    -1.13680400
      3      O     0.09317234    -1.33880729    -0.53222717
      4      C     0.32471168    -0.53063611     0.64349893
      5      C    -1.14885039    -0.38691864     1.16756475
      6      C    -1.54704955    -0.24236279     2.50744823
      7      N    -1.84518595    -0.12868788     3.63246278
      8      C    -1.87381879    -0.31775006     0.02925214
      9     Br    -3.69280553     0.02414461    -0.20340114
     10      C     0.69372160     0.82848038    -0.00310873
     11      H    -0.23699456     1.74028954    -1.76958360
     12      H    -1.22841103    -0.80116736    -2.09024370
     13      H     1.03660045    -0.99624555     1.32711723
     14      H     1.22747987     1.62953854     0.49918833

Total System Charge              0.00000

 *** GO1_GOStep2 ***

 Energy gradients wrt nuclear displacements
 ==========================================

     Atom      Cartesian (a.u./angstrom)
                 X         Y         Z
 ----------------------------------------
     1 C    -0.005556 -0.007519 -0.011752
     2 C     0.008466 -0.000014  0.015711
     3 O    -0.005554  0.011002  0.003780
     4 C    -0.014574 -0.000047 -0.011325
     5 C     0.012238 -0.001094 -0.001448
     6 C    -0.000999  0.000364 -0.002976
     7 N    -0.001418  0.000195  0.004717
     8 C    -0.006082  0.003211 -0.007386
     9 Br    0.005815 -0.001922  0.001669
    10 C     0.015582 -0.011106  0.003656
    11 H    -0.003447  0.002772  0.002403
    12 H     0.000314 -0.000422 -0.002484
    13 H     0.002051 -0.000325  0.001120
    14 H    -0.006835  0.004905  0.004315
 ----------------------------------------

 dE(predicted):    -0.21615E-02, dE(actual):    -0.23861E-02, Trust radius:    0.400000, all in a.u.
 
----------------------------------------------------------------------
Geometry Convergence after Step   2       (Hartree/Angstrom,Angstrom)
----------------------------------------------------------------------
current energy                               -3.17788026 Hartree
energy change                      -0.00238614     0.00014000    F
constrained gradient max            0.01571551     0.00010000    F
constrained gradient rms            0.00670176     0.00006667    F
gradient max                        0.01571552
gradient rms                        0.00670176
cart. step max                      0.08296701     0.01000000    F
cart. step rms                      0.02315013     0.00666667    F
 

--------
Geometry
--------
Formula: C7H4BrNO
Atoms
  Index Symbol   x (angstrom)   y (angstrom)   z (angstrom)
      1      C    -0.06890729     0.91469611    -1.10184067
      2      C    -0.86120520    -0.41942387    -1.13658221
      3      O     0.09658012    -1.32367588    -0.52473543
      4      C     0.32077473    -0.51104363     0.66214785
      5      C    -1.16745654    -0.39295970     1.17825518
      6      C    -1.56146427    -0.26419080     2.51852758
      7      N    -1.85219501    -0.16223424     3.64326104
      8      C    -1.88813624    -0.33147478     0.03725406
      9     Br    -3.71245977     0.00716408    -0.21019632
     10      C     0.67090286     0.85376630     0.00403699
     11      H    -0.18904989     1.73030664    -1.80445569
     12      H    -1.23205392    -0.79553160    -2.08897689
     13      H     1.03714354    -0.97410843     1.33887780
     14      H     1.31044688     1.61278980     0.43792672

Total System Charge              0.00000

 *** GO1_GOStep3 ***

 Energy gradients wrt nuclear displacements
 ==========================================

     Atom      Cartesian (a.u./angstrom)
                 X         Y         Z
 ----------------------------------------
     1 C     0.002075 -0.001474  0.006016
     2 C     0.002312 -0.001215 -0.006283
     3 O    -0.003325  0.005809  0.002829
     4 C     0.001491 -0.001446  0.003426
     5 C     0.002668  0.000163  0.003338
     6 C    -0.001587  0.000110  0.006022
     7 N     0.001604 -0.000700 -0.007215
     8 C    -0.006223  0.000675 -0.000852
     9 Br    0.002380 -0.000634  0.000156
    10 C    -0.001102 -0.001827 -0.006958
    11 H    -0.000015  0.000777  0.001533
    12 H     0.000723 -0.000771 -0.000211
    13 H     0.000656 -0.000637 -0.000988
    14 H    -0.001656  0.001170 -0.000813
 ----------------------------------------

 dE(predicted):    -0.12728E-02, dE(actual):    -0.12906E-02, Trust radius:    0.800000, all in a.u.
 
----------------------------------------------------------------------
Geometry Convergence after Step   3       (Hartree/Angstrom,Angstrom)
----------------------------------------------------------------------
current energy                               -3.17917087 Hartree
energy change                      -0.00129061     0.00014000    F
constrained gradient max            0.00720955     0.00010000    F
constrained gradient rms            0.00300587     0.00006667    F
gradient max                        0.00720956
gradient rms                        0.00300587
cart. step max                      0.02176259     0.01000000    F
cart. step rms                      0.00634892     0.00666667    T
 

--------
Geometry
--------
Formula: C7H4BrNO
Atoms
  Index Symbol   x (angstrom)   y (angstrom)   z (angstrom)
      1      C    -0.06786875     0.91720357    -1.10580565
      2      C    -0.86234310    -0.41713742    -1.13300707
      3      O     0.10209601    -1.32325823    -0.52922755
      4      C     0.31678276    -0.50788754     0.66020580
      5      C    -1.17213244    -0.39877201     1.17830538
      6      C    -1.56267793    -0.27057248     2.52005423
      7      N    -1.84569151    -0.16904043     3.64973663
      8      C    -1.88962350    -0.33200133     0.03901279
      9     Br    -3.71552340     0.00808616    -0.20976007
     10      C     0.66110904     0.86336343     0.01141241
     11      H    -0.17267657     1.71951580    -1.82621827
     12      H    -1.23720381    -0.79103913    -2.08433038
     13      H     1.03252388    -0.96543126     1.34093887
     14      H     1.31614932     1.61105087     0.44218287

Total System Charge              0.00000

 *** GO1_GOStep4 ***

 Energy gradients wrt nuclear displacements
 ==========================================

     Atom      Cartesian (a.u./angstrom)
                 X         Y         Z
 ----------------------------------------
     1 C     0.000604 -0.001258 -0.000930
     2 C     0.001932 -0.000216 -0.001084
     3 O     0.000320  0.000511 -0.000889
     4 C     0.000555 -0.000739 -0.000176
     5 C    -0.000204 -0.000420  0.000631
     6 C     0.000582 -0.000600 -0.004461
     7 N    -0.000898  0.000329  0.003812
     8 C    -0.003658  0.001055  0.002524
     9 Br    0.001100 -0.000352  0.000279
    10 C    -0.000801  0.001518  0.000826
    11 H     0.000418  0.000347  0.000375
    12 H     0.000552 -0.000494  0.000461
    13 H    -0.000068 -0.000330 -0.000737
    14 H    -0.000435  0.000648 -0.000632
 ----------------------------------------

 dE(predicted):    -0.13406E-03, dE(actual):    -0.10551E-03, Trust radius:    0.800000, all in a.u.
 
----------------------------------------------------------------------
Geometry Convergence after Step   4       (Hartree/Angstrom,Angstrom)
----------------------------------------------------------------------
current energy                               -3.17927638 Hartree
energy change                      -0.00010551     0.00014000    T
constrained gradient max            0.00445683     0.00010000    F
constrained gradient rms            0.00133623     0.00006667    F
gradient max                        0.00445683
gradient rms                        0.00133623
cart. step max                      0.01369508     0.01000000    F
cart. step rms                      0.00440158     0.00666667    T
 

--------
Geometry
--------
Formula: C7H4BrNO
Atoms
  Index Symbol   x (angstrom)   y (angstrom)   z (angstrom)
      1      C    -0.07224173     0.92153698    -1.10072935
      2      C    -0.86248104    -0.41567450    -1.13272792
      3      O     0.10154893    -1.32438431    -0.53001951
      4      C     0.31596950    -0.50854172     0.65964659
      5      C    -1.17262792    -0.39568107     1.17685975
      6      C    -1.56208771    -0.26492833     2.51905645
      7      N    -1.84360295    -0.16186166     3.64813245
      8      C    -1.88969156    -0.33735748     0.03718322
      9     Br    -3.71763593    -0.00560892    -0.21412102
     10      C     0.66518311     0.86082179     0.01114668
     11      H    -0.17912996     1.72421292    -1.82053298
     12      H    -1.23780141    -0.78504018    -2.08583187
     13      H     1.02959631    -0.96517760     1.34344572
     14      H     1.32792234     1.60176408     0.44199178

Total System Charge              0.00000

 *** GO1_GOStep5 ***

 Energy gradients wrt nuclear displacements
 ==========================================

     Atom      Cartesian (a.u./angstrom)
                 X         Y         Z
 ----------------------------------------
     1 C    -0.001717  0.000222 -0.000514
     2 C     0.002930  0.000228 -0.000779
     3 O     0.000149 -0.000820 -0.000507
     4 C    -0.000527 -0.000584 -0.000599
     5 C    -0.000236  0.000941 -0.000242
     6 C    -0.000104 -0.000078 -0.000930
     7 N    -0.000146 -0.000031  0.000832
     8 C    -0.002318 -0.000729  0.001777
     9 Br    0.000799 -0.000267  0.000159
    10 C     0.000919  0.000752  0.000905
    11 H     0.000214  0.000363  0.000194
    12 H     0.000049 -0.000282  0.000366
    13 H    -0.000027  0.000054 -0.000316
    14 H     0.000016  0.000231 -0.000347
 ----------------------------------------

 dE(predicted):    -0.25849E-04, dE(actual):    -0.38877E-04, Trust radius:    0.800000, all in a.u.
 
----------------------------------------------------------------------
Geometry Convergence after Step   5       (Hartree/Angstrom,Angstrom)
----------------------------------------------------------------------
current energy                               -3.17931525 Hartree
energy change                      -0.00003888     0.00014000    T
constrained gradient max            0.00289755     0.00010000    F
constrained gradient rms            0.00083885     0.00006667    F
gradient max                        0.00289754
gradient rms                        0.00083885
cart. step max                      0.00547339     0.01000000    T
cart. step rms                      0.00187432     0.00666667    T
 

--------
Geometry
--------
Formula: C7H4BrNO
Atoms
  Index Symbol   x (angstrom)   y (angstrom)   z (angstrom)
      1      C    -0.07028845     0.92008892    -1.10307975
      2      C    -0.86365089    -0.41523865    -1.13257164
      3      O     0.10016392    -1.32349398    -0.52793298
      4      C     0.31607249    -0.50678014     0.66090232
      5      C    -1.17242905    -0.39587069     1.17727577
      6      C    -1.56138206    -0.26782658     2.52001575
      7      N    -1.84323306    -0.16733505     3.64853620
      8      C    -1.88865454    -0.33333077     0.03693378
      9     Br    -3.71755068    -0.00403863    -0.21478700
     10      C     0.66487220     0.86106480     0.01016830
     11      H    -0.17721728     1.72085164    -1.82498715
     12      H    -1.24002840    -0.78439132    -2.08556424
     13      H     1.02974405    -0.96177524     1.34604199
     14      H     1.32650176     1.60215570     0.44254866

Total System Charge              0.00000

 *** GO1_GOStep6 ***

 Energy gradients wrt nuclear displacements
 ==========================================

     Atom      Cartesian (a.u./angstrom)
                 X         Y         Z
 ----------------------------------------
     1 C    -0.000989 -0.000184 -0.000446
     2 C     0.001535 -0.000133 -0.001006
     3 O    -0.000454  0.000478  0.000323
     4 C     0.000385 -0.000290 -0.000014
     5 C     0.000018 -0.000320 -0.000268
     6 C    -0.000339  0.000046  0.001836
     7 N     0.000376 -0.000230 -0.001716
     8 C    -0.001064  0.000220  0.000731
     9 Br    0.000469 -0.000313  0.000045
    10 C     0.000226  0.000302  0.000377
    11 H     0.000004  0.000156  0.000026
    12 H    -0.000132 -0.000026  0.000024
    13 H     0.000020  0.000178  0.000104
    14 H    -0.000053  0.000116 -0.000016
 ----------------------------------------

 dE(predicted):    -0.10112E-04, dE(actual):    -0.11851E-04, Trust radius:    0.800000, all in a.u.
 
----------------------------------------------------------------------
Geometry Convergence after Step   6       (Hartree/Angstrom,Angstrom)
----------------------------------------------------------------------
current energy                               -3.17932710 Hartree
energy change                      -0.00001185     0.00014000    T
constrained gradient max            0.00183811     0.00010000    F
constrained gradient rms            0.00058535     0.00006667    F
gradient max                        0.00183811
gradient rms                        0.00058535
cart. step max                      0.00144687     0.01000000    T
cart. step rms                      0.00050219     0.00666667    T
 

--------
Geometry
--------
Formula: C7H4BrNO
Atoms
  Index Symbol   x (angstrom)   y (angstrom)   z (angstrom)
      1      C    -0.06942145     0.91985606    -1.10312866
      2      C    -0.86436810    -0.41483896    -1.13227873
      3      O     0.10027350    -1.32313710    -0.52824579
      4      C     0.31576421    -0.50646861     0.66094923
      5      C    -1.17267146    -0.39497781     1.17718574
      6      C    -1.56142611    -0.26754499     2.51999579
      7      N    -1.84223473    -0.16768742     3.64939302
      8      C    -1.88872953    -0.33333474     0.03664348
      9     Br    -3.71828410    -0.00548550    -0.21544085
     10      C     0.66524399     0.86081997     0.01000005
     11      H    -0.17673668     1.72021838    -1.82536088
     12      H    -1.24036222    -0.78356860    -2.08559690
     13      H     1.02930979    -0.96149404     1.34623625
     14      H     1.32656289     1.60172337     0.44314823

Total System Charge              0.00000

 *** GO1_GOStep7 ***

 Energy gradients wrt nuclear displacements
 ==========================================

     Atom      Cartesian (a.u./angstrom)
                 X         Y         Z
 ----------------------------------------
     1 C    -0.000205 -0.000388  0.000079
     2 C     0.000736  0.000010 -0.000535
     3 O    -0.000042  0.000628 -0.000020
     4 C     0.000209 -0.000134  0.000060
     5 C     0.000011 -0.000083 -0.000207
     6 C     0.000105 -0.000145 -0.000193
     7 N    -0.000084 -0.000060  0.000332
     8 C    -0.000636 -0.000017  0.000477
     9 Br    0.000208 -0.000265 -0.000003
    10 C    -0.000064  0.000132 -0.000189
    11 H    -0.000094  0.000048  0.000023
    12 H    -0.000086  0.000005 -0.000008
    13 H     0.000060  0.000189  0.000105
    14 H    -0.000117  0.000082  0.000079
 ----------------------------------------

 dE(predicted):    -0.19573E-05, dE(actual):    -0.44754E-05, Trust radius:    0.800000, all in a.u.
 
----------------------------------------------------------------------
Geometry Convergence after Step   7       (Hartree/Angstrom,Angstrom)
----------------------------------------------------------------------
current energy                               -3.17933158 Hartree
energy change                      -0.00000448     0.00014000    T
constrained gradient max            0.00070485     0.00010000    F
constrained gradient rms            0.00024066     0.00006667    F
gradient max                        0.00070484
gradient rms                        0.00024066
cart. step max                      0.00057455     0.01000000    T
cart. step rms                      0.00020157     0.00666667    T
 

--------
Geometry
--------
Formula: C7H4BrNO
Atoms
  Index Symbol   x (angstrom)   y (angstrom)   z (angstrom)
      1      C    -0.06930311     0.92003697    -1.10297788
      2      C    -0.86459287    -0.41483059    -1.13192808
      3      O     0.10006337    -1.32371165    -0.52808410
      4      C     0.31561957    -0.50639857     0.66085529
      5      C    -1.17271689    -0.39475928     1.17714392
      6      C    -1.56141384    -0.26737109     2.51988506
      7      N    -1.84168118    -0.16771361     3.64937596
      8      C    -1.88851869    -0.33331671     0.03641355
      9     Br    -3.71841459    -0.00566851    -0.21584048
     10      C     0.66517136     0.86091542     0.01014446
     11      H    -0.17694443     1.72015065    -1.82542568
     12      H    -1.24011673    -0.78340630    -2.08547043
     13      H     1.02920313    -0.96154260     1.34600902
     14      H     1.32656493     1.60169585     0.44339941

Total System Charge              0.00000

 *** GO1_GOStep8 ***

 Energy gradients wrt nuclear displacements
 ==========================================

     Atom      Cartesian (a.u./angstrom)
                 X         Y         Z
 ----------------------------------------
     1 C    -0.000002 -0.000160  0.000163
     2 C     0.000413  0.000137 -0.000051
     3 O     0.000014  0.000009 -0.000042
     4 C     0.000052  0.000128 -0.000148
     5 C     0.000012 -0.000037 -0.000090
     6 C     0.000048 -0.000128 -0.000085
     7 N    -0.000004 -0.000087  0.000122
     8 C    -0.000184 -0.000084  0.000206
     9 Br    0.000023 -0.000236 -0.000022
    10 C    -0.000176  0.000188 -0.000170
    11 H    -0.000134  0.000026  0.000010
    12 H    -0.000000 -0.000002  0.000000
    13 H     0.000063  0.000146  0.000036
    14 H    -0.000126  0.000100  0.000071
 ----------------------------------------

 dE(predicted):    -0.57951E-06, dE(actual):    -0.19593E-05, Trust radius:    0.800000, all in a.u.
 
----------------------------------------------------------------------
Geometry Convergence after Step   8       (Hartree/Angstrom,Angstrom)
----------------------------------------------------------------------
current energy                               -3.17933354 Hartree
energy change                      -0.00000196     0.00014000    T
constrained gradient max            0.00038239     0.00010000    F
constrained gradient rms            0.00010517     0.00006667    F
gradient max                        0.00038239
gradient rms                        0.00010517
cart. step max                      0.00047100     0.01000000    T
cart. step rms                      0.00018227     0.00666667    T
 

--------
Geometry
--------
Formula: C7H4BrNO
Atoms
  Index Symbol   x (angstrom)   y (angstrom)   z (angstrom)
      1      C    -0.06955498     0.92021074    -1.10282101
      2      C    -0.86476191    -0.41492689    -1.13185081
      3      O     0.10029896    -1.32365433    -0.52814493
      4      C     0.31570685    -0.50647349     0.66095330
      5      C    -1.17261676    -0.39482913     1.17719255
      6      C    -1.56151172    -0.26722513     2.51981501
      7      N    -1.84215218    -0.16750848     3.64918235
      8      C    -1.88831879    -0.33346443     0.03635210
      9     Br    -3.71829820    -0.00548130    -0.21565623
     10      C     0.66520920     0.86083933     0.01020037
     11      H    -0.17737358     1.72036822    -1.82520223
     12      H    -1.23992524    -0.78357610    -2.08549822
     13      H     1.02939641    -0.96182624     1.34584872
     14      H     1.32682195     1.60162722     0.44312903

Total System Charge              0.00000

 *** GO1_GOStep9 ***

 Energy gradients wrt nuclear displacements
 ==========================================

     Atom      Cartesian (a.u./angstrom)
                 X         Y         Z
 ----------------------------------------
     1 C    -0.000090 -0.000026  0.000041
     2 C     0.000147  0.000079 -0.000006
     3 O     0.000137  0.000006 -0.000058
     4 C     0.000028  0.000139 -0.000031
     5 C    -0.000025  0.000003  0.000014
     6 C     0.000048 -0.000105 -0.000033
     7 N     0.000008 -0.000106  0.000022
     8 C     0.000008 -0.000071  0.000056
     9 Br   -0.000028 -0.000226 -0.000017
    10 C    -0.000092  0.000067 -0.000016
    11 H    -0.000150  0.000032 -0.000003
    12 H     0.000048 -0.000019 -0.000009
    13 H     0.000072  0.000111 -0.000003
    14 H    -0.000113  0.000116  0.000042
 ----------------------------------------
 
----------------------------------------------------------------------
Geometry Convergence after Step   9       (Hartree/Angstrom,Angstrom)
----------------------------------------------------------------------
current energy                               -3.17933317 Hartree
energy change                       0.00000037     0.00014000    T
constrained gradient max            0.00011652     0.00010000    F
constrained gradient rms            0.00003790     0.00006667    T
gradient max                        0.00011652
gradient rms                        0.00003790
cart. step max                      0.00038257     0.01000000    T
cart. step rms                      0.00014615     0.00666667    T
 

--------
Geometry
--------
Formula: C7H4BrNO
Atoms
  Index Symbol   x (angstrom)   y (angstrom)   z (angstrom)
      1      C    -0.06964350     0.92026962    -1.10276914
      2      C    -0.86484284    -0.41501728    -1.13185099
      3      O     0.10031969    -1.32365919    -0.52814273
      4      C     0.31581127    -0.50655222     0.66097312
      5      C    -1.17251081    -0.39511057     1.17720035
      6      C    -1.56159035    -0.26721687     2.51973843
      7      N    -1.84249890    -0.16731044     3.64902422
      8      C    -1.88822752    -0.33371517     0.03634608
      9     Br    -3.71813720    -0.00509873    -0.21536927
     10      C     0.66517516     0.86086293     0.01024024
     11      H    -0.17742758     1.72052256    -1.82505076
     12      H    -1.23984184    -0.78374522    -2.08552543
     13      H     1.02959840    -0.96196867     1.34571407
     14      H     1.32673600     1.60181927     0.44297182

Total System Charge              0.00000

 *** GO1_GOStep10 ***

 Energy gradients wrt nuclear displacements
 ==========================================

     Atom      Cartesian (a.u./angstrom)
                 X         Y         Z
 ----------------------------------------
     1 C    -0.000088  0.000041 -0.000007
     2 C     0.000036  0.000048 -0.000028
     3 O     0.000080  0.000021 -0.000004
     4 C     0.000073  0.000129  0.000009
     5 C    -0.000020 -0.000035  0.000018
     6 C     0.000045 -0.000091 -0.000049
     7 N     0.000003 -0.000109  0.000025
     8 C     0.000057 -0.000110  0.000007
     9 Br   -0.000017 -0.000220 -0.000009
    10 C    -0.000055  0.000065  0.000041
    11 H    -0.000136  0.000044  0.000005
    12 H     0.000067 -0.000030 -0.000006
    13 H     0.000071  0.000102 -0.000016
    14 H    -0.000116  0.000143  0.000016
 ----------------------------------------
 
---------------------------------------------------------
Geometry Convergence after Step  10       ** CONVERGED **
---------------------------------------------------------
current energy                               -3.17933236 Hartree
energy change                       0.00000081     0.00014000    T
constrained gradient max            0.00006168     0.00010000    T
constrained gradient rms            0.00002330     0.00006667    T
gradient max                        0.00006168
gradient rms                        0.00002330
cart. step max                      0.00020515     0.01000000    T
cart. step rms                      0.00005858     0.00666667    T
 
Geometry optimization converged

Optimized geometry:

--------
Geometry
--------
Formula: C7H4BrNO
Atoms
  Index Symbol   x (angstrom)   y (angstrom)   z (angstrom)
      1      C    -0.06964350     0.92026962    -1.10276914
      2      C    -0.86484284    -0.41501728    -1.13185099
      3      O     0.10031969    -1.32365919    -0.52814273
      4      C     0.31581127    -0.50655222     0.66097312
      5      C    -1.17251081    -0.39511057     1.17720035
      6      C    -1.56159035    -0.26721687     2.51973843
      7      N    -1.84249890    -0.16731044     3.64902422
      8      C    -1.88822752    -0.33371517     0.03634608
      9     Br    -3.71813720    -0.00509873    -0.21536927
     10      C     0.66517516     0.86086293     0.01024024
     11      H    -0.17742758     1.72052256    -1.82505076
     12      H    -1.23984184    -0.78374522    -2.08552543
     13      H     1.02959840    -0.96196867     1.34571407
     14      H     1.32673600     1.60181927     0.44297182

Total System Charge              0.00000

Performing a single point calculation on the final geometry ...

 *** adf ***



 ===========================
 A T T A C H E D   F I L E S
 ===========================
  
 Restart/tmp/amstmp_c5_fragB_opt_kid0.513296897/GO1_GOStep10.rkf*** GO1_GOStep10 ***



 ===============================
 M O D E L   P A R A M E T E R S
 ===============================
  
 DENSITY FUNCTIONAL POTENTIAL (scf)
    LDA:                               Exchange only                           == Not Default ==
    Gradient Corrections:              Becke88 LYP                             == Not Default ==

 SPIN  (restricted / unrestr.)
    Molecule:                          Restricted                               
    Fragments:                         Restricted                               

 OTHER ASPECTS
    Relativistic Corrections:          scalar (ZORA,MAPA)                       

    Nuclear Charge Density Model:      Point Charge Nuclei                      
    Core Treatment:                    Frozen Orbital(s)                        

    Hyperfine or Zeeman Interaction:   ---                                      

 Settings for Grimme D3 dispersion correction

      damping                        BJ
      s6                          1.000
      s8                          2.700
      a1                          0.430
      a2                          4.236

 Other (technical) parameters

      alpha                      14.000
      version                         4
 



 ===============
 G E O M E T R Y  ***  3D  Molecule  ***
 ===============
  

 ATOMS
 =====                            X Y Z                    CHARGE
                                (Angstrom)             Nucl     +Core       At.Mass
                       --------------------------    ----------------       -------
    1  C              -0.0696    0.9203   -1.1028      6.00      6.00       12.0000
    2  C              -0.8648   -0.4150   -1.1319      6.00      6.00       12.0000
    3  O               0.1003   -1.3237   -0.5281      8.00      8.00       15.9949
    4  C               0.3158   -0.5066    0.6610      6.00      6.00       12.0000
    5  C              -1.1725   -0.3951    1.1772      6.00      6.00       12.0000
    6  C              -1.5616   -0.2672    2.5197      6.00      6.00       12.0000
    7  N              -1.8425   -0.1673    3.6490      7.00      7.00       14.0031
    8  C              -1.8882   -0.3337    0.0363      6.00      6.00       12.0000
    9  Br             -3.7181   -0.0051   -0.2154     35.00     35.00       78.9183
   10  C               0.6652    0.8609    0.0102      6.00      6.00       12.0000
   11  H              -0.1774    1.7205   -1.8251      1.00      1.00        1.0078
   12  H              -1.2398   -0.7837   -2.0855      1.00      1.00        1.0078
   13  H               1.0296   -0.9620    1.3457      1.00      1.00        1.0078
   14  H               1.3267    1.6018    0.4430      1.00      1.00        1.0078


 FRAGMENTS
 =========                                     Atoms in this Fragment     Cart. coord.s (Angstrom)
                                               -------------------------------------------------------
    1  C                                                 1  C           -0.0696    0.9203   -1.1028
    2  C                                                 2  C           -0.8648   -0.4150   -1.1319
    3  C                                                 4  C            0.3158   -0.5066    0.6610
    4  C                                                 5  C           -1.1725   -0.3951    1.1772
    5  C                                                 6  C           -1.5616   -0.2672    2.5197
    6  C                                                 8  C           -1.8882   -0.3337    0.0363
    7  C                                                10  C            0.6652    0.8609    0.0102
    8  O                                                 3  O            0.1003   -1.3237   -0.5281
    9  N                                                 7  N           -1.8425   -0.1673    3.6490
   10  Br                                                9  Br          -3.7181   -0.0051   -0.2154
   11  H                                                11  H           -0.1774    1.7205   -1.8251
   12  H                                                12  H           -1.2398   -0.7837   -2.0855
   13  H                                                13  H            1.0296   -0.9620    1.3457
   14  H                                                14  H            1.3267    1.6018    0.4430


 Interatomic Distance Matrix (Angstrom)
 --------------------------------------

   1)     0.000
   2)     1.554   0.000
   3)     2.323   1.457   0.000
   4)     2.301   2.149   1.459   0.000
   5)     2.854   2.330   2.322   1.579   0.000
   6)     4.094   3.720   3.629   2.653   1.404   0.000
   7)     5.187   4.886   4.750   3.702   2.571   1.168   0.000
   8)     2.485   1.555   2.292   2.297   1.348   2.506   3.617   0.000
   9)     3.867   3.025   4.052   4.158   2.928   3.493   4.299   1.876   0.000
  10)     1.335   2.296   2.320   1.554   2.513   3.540   4.537   2.819   4.474   0.000
  11)     1.083   2.348   3.321   3.374   3.805   4.974   6.025   3.258   4.255   2.195
          0.000
  12)     2.289   1.089   2.124   3.169   3.286   4.645   5.799   2.264   3.201   3.275
          2.733   0.000
  13)     3.278   3.166   2.123   1.089   2.280   2.928   3.766   3.259   5.089   2.289
          4.325   4.118   0.000
  14)     2.192   3.369   3.317   2.348   3.282   4.019   4.843   3.775   5.335   1.083
          2.724   4.321   2.734   0.000

 Min. Distance =    1.0834
 Max. Distance =    6.0251



 =====================================
 S Y M M E T R Y ,   E L E C T R O N S
 =====================================
  
 Symmetry: NOSYM

 Irreducible Representations, including subspecies
 -------------------------------------------------
 A


 Configuration of Valence Electrons
 ==================================
 ( determined in the SCF procedure )

 Total:   96

 Net Charge: 0 (Nuclei minus Electrons)

 Aufbau principle for MO occupations will be applied through SCF cycle no.     100
 Thereafter, the program will assign electrons to MOs that are spatially
 similar to the occupied MOs in a "reference" cycle ("KeepOrbitals").
 The reference cycle is always the PREVIOUS cycle: it will evolve with
 the SCF procedure.
 ***************************************************************************************************



                                      ****************************************
                                      *  B U I L D : (Fragments, Functions)  *
                                      ****************************************
  



 =======
 S F O s  ***  (Symmetrized Fragment Orbitals)  ***
 =======
  
 SFOs are linear combinations of (valence) Fragment Orbitals (FOs), such that the SFOs transform as the
 irreducible representations of the (molecular) symmetry group. Each SFO is therefore characterized by
 an irrep of the molecule and by a few (or only one) generating FOs.
 The SFOs constitute a symmetry-adapted basis for the Fock matrix. The MO eigenvector coefficients in
 this basis provide a direct interpretation of the MOs in terms of Frontier Orbital Theory.

 The SFOs are combined with auxiliary Core Functions (CFs) to ensure orthogonalization on the (frozen)
 Core Orbitals (COs). The Core-orthogonalized SFOs (CSFOs) constitute the true Fock basis.

 The FOs, and hence also the (C)SFOs are combinations of the elementary basis functions (BAS). The basis
 functions that participate in the description of the SFOs depend on the irrep. The indices of the
 involved functions are printed below for each irrep.
 (The complete list of primitive basis functions is printed in another section)

 Total nr. of (C)SFOs (summation over all irreps) :   334

 NOTE: a (C)SFO that is defined as a combination of more than one FO is usually NOT normalized.



                                       === A ===
 Nr. of SFOs :  334
 Cartesian basis functions that participate in this irrep (total number =   381) :
      1     2     3     4     5     6     9    12     7    10
     13     8    11    14    15    16    17    18    19    20
     21    22    23    24    25    26    27    28    29    30
     31    32    33    34    35    36    39    42    37    40
     43    38    41    44    45    46    47    48    49    50
     51    52    53    54    55    56    57    58    59    60
     61    62    63    64    65    66    69    72    67    70
     73    68    71    74    75    76    77    78    79    80
     81    82    83    84    85    86    87    88    89    90
     91    92    93    94    95    96    99   102    97   100
    103    98   101   104   105   106   107   108   109   110
    111   112   113   114   115   116   117   118   119   120
    121   122   123   124   125   126   129   132   127   130
    133   128   131   134   135   136   137   138   139   140
    141   142   143   144   145   146   147   148   149   150
    151   152   153   154   155   156   159   162   157   160
    163   158   161   164   165   166   167   168   169   170
    171   172   173   174   175   176   177   178   179   180
    181   182   183   184   185   186   189   192   187   190
    193   188   191   194   195   196   197   198   199   200
    201   202   203   204   205   206   207   208   209   210
    211   212   213   214   215   216   219   222   217   220
    223   218   221   224   225   226   227   228   229   230
    231   232   233   234   235   236   237   238   239   240
    241   242   243   244   245   246   249   252   247   250
    253   248   251   254   255   256   257   258   259   260
    261   262   263   264   265   266   267   268   269   270
    271   272   273   280   281   306   307   308   274   277
    282   285   309   312   315   275   278   283   286   310
    313   316   276   279   284   287   311   314   317   288
    294   300   318   289   295   301   319   290   296   302
    320   291   297   303   321   292   298   304   322   293
    299   305   323   324   325   326   327   328   329   330
    331   332   333   334   335   336   337   338   339   340
    341   342   343   344   345   346   347   348   349   350
    351   352   353   354   355   356   357   358   359   360
    361   362   363   364   365   366   367   368   369   370
    371   372   373   374   375   376   377   378   379   380
    381

    SFO  (index         Fragment          Generating    Expansion in Fragment Orbitals
  indx  incl.CFs)   Occup   Orb.Energy   FragmentType  Coeff.   Orbital     on Fragment
 --------------------------------------------------------------------------------------
     1       1      2.000     -10.066 au  C             1.00      1 S               1
                        (    -273.921 eV)
     2       2      2.000      -0.501 au  C             1.00      2 S               1
                        (     -13.620 eV)
     3       3       --         0.373 au  C             1.00      3 S               1
                        (      10.158 eV)
     4       4       --         5.405 au  C             1.00      4 S               1
                        (     147.073 eV)
     5       5       --        49.848 au  C             1.00      5 S               1
                        (    1356.422 eV)
     6       6      0.667      -0.193 au  C             1.00      1 P:x             1
                        (      -5.239 eV)
     7       7       --         0.169 au  C             1.00      2 P:x             1
                        (       4.589 eV)
     8       8       --         2.013 au  C             1.00      3 P:x             1
                        (      54.789 eV)
     9       9      0.667      -0.193 au  C             1.00      1 P:y             1
                        (      -5.239 eV)
    10      10       --         0.169 au  C             1.00      2 P:y             1
                        (       4.589 eV)
    11      11       --         2.013 au  C             1.00      3 P:y             1
                        (      54.789 eV)
    12      12      0.667      -0.193 au  C             1.00      1 P:z             1
                        (      -5.239 eV)
    13      13       --         0.169 au  C             1.00      2 P:z             1
                        (       4.589 eV)
    14      14       --         2.013 au  C             1.00      3 P:z             1
                        (      54.789 eV)
    15      15       --         1.243 au  C             1.00      1 D:z2            1
                        (      33.824 eV)
    16      16       --         1.243 au  C             1.00      1 D:x2-y2         1
                        (      33.824 eV)
    17      17       --         1.243 au  C             1.00      1 D:xy            1
                        (      33.824 eV)
    18      18       --         1.243 au  C             1.00      1 D:xz            1
                        (      33.824 eV)
    19      19       --         1.243 au  C             1.00      1 D:yz            1
                        (      33.824 eV)
    20      20       --         4.016 au  C             1.00      1 F:z3            1
                        (     109.271 eV)
    21      21       --         4.016 au  C             1.00      1 F:z             1
                        (     109.271 eV)
    22      22       --         4.016 au  C             1.00      1 F:xyz           1
                        (     109.271 eV)
    23      23       --         4.016 au  C             1.00      1 F:z2x           1
                        (     109.271 eV)
    24      24       --         4.016 au  C             1.00      1 F:z2y           1
                        (     109.271 eV)
    25      25       --         4.016 au  C             1.00      1 F:x             1
                        (     109.271 eV)
    26      26       --         4.016 au  C             1.00      1 F:y             1
                        (     109.271 eV)
    27      27      2.000     -10.066 au  C             1.00      1 S               2
                        (    -273.921 eV)
    28      28      2.000      -0.501 au  C             1.00      2 S               2
                        (     -13.620 eV)
    29      29       --         0.373 au  C             1.00      3 S               2
                        (      10.158 eV)
    30      30       --         5.405 au  C             1.00      4 S               2
                        (     147.073 eV)
    31      31       --        49.848 au  C             1.00      5 S               2
                        (    1356.422 eV)
    32      32      0.667      -0.193 au  C             1.00      1 P:x             2
                        (      -5.239 eV)
    33      33       --         0.169 au  C             1.00      2 P:x             2
                        (       4.589 eV)
    34      34       --         2.013 au  C             1.00      3 P:x             2
                        (      54.789 eV)
    35      35      0.667      -0.193 au  C             1.00      1 P:y             2
                        (      -5.239 eV)
    36      36       --         0.169 au  C             1.00      2 P:y             2
                        (       4.589 eV)
    37      37       --         2.013 au  C             1.00      3 P:y             2
                        (      54.789 eV)
    38      38      0.667      -0.193 au  C             1.00      1 P:z             2
                        (      -5.239 eV)
    39      39       --         0.169 au  C             1.00      2 P:z             2
                        (       4.589 eV)
    40      40       --         2.013 au  C             1.00      3 P:z             2
                        (      54.789 eV)
    41      41       --         1.243 au  C             1.00      1 D:z2            2
                        (      33.824 eV)
    42      42       --         1.243 au  C             1.00      1 D:x2-y2         2
                        (      33.824 eV)
    43      43       --         1.243 au  C             1.00      1 D:xy            2
                        (      33.824 eV)
    44      44       --         1.243 au  C             1.00      1 D:xz            2
                        (      33.824 eV)
    45      45       --         1.243 au  C             1.00      1 D:yz            2
                        (      33.824 eV)
    46      46       --         4.016 au  C             1.00      1 F:z3            2
                        (     109.271 eV)
    47      47       --         4.016 au  C             1.00      1 F:z             2
                        (     109.271 eV)
    48      48       --         4.016 au  C             1.00      1 F:xyz           2
                        (     109.271 eV)
    49      49       --         4.016 au  C             1.00      1 F:z2x           2
                        (     109.271 eV)
    50      50       --         4.016 au  C             1.00      1 F:z2y           2
                        (     109.271 eV)
    51      51       --         4.016 au  C             1.00      1 F:x             2
                        (     109.271 eV)
    52      52       --         4.016 au  C             1.00      1 F:y             2
                        (     109.271 eV)
    53      53      2.000     -10.066 au  C             1.00      1 S               3
                        (    -273.921 eV)
    54      54      2.000      -0.501 au  C             1.00      2 S               3
                        (     -13.620 eV)
    55      55       --         0.373 au  C             1.00      3 S               3
                        (      10.158 eV)
    56      56       --         5.405 au  C             1.00      4 S               3
                        (     147.073 eV)
    57      57       --        49.848 au  C             1.00      5 S               3
                        (    1356.422 eV)
    58      58      0.667      -0.193 au  C             1.00      1 P:x             3
                        (      -5.239 eV)
    59      59       --         0.169 au  C             1.00      2 P:x             3
                        (       4.589 eV)
    60      60       --         2.013 au  C             1.00      3 P:x             3
                        (      54.789 eV)
    61      61      0.667      -0.193 au  C             1.00      1 P:y             3
                        (      -5.239 eV)
    62      62       --         0.169 au  C             1.00      2 P:y             3
                        (       4.589 eV)
    63      63       --         2.013 au  C             1.00      3 P:y             3
                        (      54.789 eV)
    64      64      0.667      -0.193 au  C             1.00      1 P:z             3
                        (      -5.239 eV)
    65      65       --         0.169 au  C             1.00      2 P:z             3
                        (       4.589 eV)
    66      66       --         2.013 au  C             1.00      3 P:z             3
                        (      54.789 eV)
    67      67       --         1.243 au  C             1.00      1 D:z2            3
                        (      33.824 eV)
    68      68       --         1.243 au  C             1.00      1 D:x2-y2         3
                        (      33.824 eV)
    69      69       --         1.243 au  C             1.00      1 D:xy            3
                        (      33.824 eV)
    70      70       --         1.243 au  C             1.00      1 D:xz            3
                        (      33.824 eV)
    71      71       --         1.243 au  C             1.00      1 D:yz            3
                        (      33.824 eV)
    72      72       --         4.016 au  C             1.00      1 F:z3            3
                        (     109.271 eV)
    73      73       --         4.016 au  C             1.00      1 F:z             3
                        (     109.271 eV)
    74      74       --         4.016 au  C             1.00      1 F:xyz           3
                        (     109.271 eV)
    75      75       --         4.016 au  C             1.00      1 F:z2x           3
                        (     109.271 eV)
    76      76       --         4.016 au  C             1.00      1 F:z2y           3
                        (     109.271 eV)
    77      77       --         4.016 au  C             1.00      1 F:x             3
                        (     109.271 eV)
    78      78       --         4.016 au  C             1.00      1 F:y             3
                        (     109.271 eV)
    79      79      2.000     -10.066 au  C             1.00      1 S               4
                        (    -273.921 eV)
    80      80      2.000      -0.501 au  C             1.00      2 S               4
                        (     -13.620 eV)
    81      81       --         0.373 au  C             1.00      3 S               4
                        (      10.158 eV)
    82      82       --         5.405 au  C             1.00      4 S               4
                        (     147.073 eV)
    83      83       --        49.848 au  C             1.00      5 S               4
                        (    1356.422 eV)
    84      84      0.667      -0.193 au  C             1.00      1 P:x             4
                        (      -5.239 eV)
    85      85       --         0.169 au  C             1.00      2 P:x             4
                        (       4.589 eV)
    86      86       --         2.013 au  C             1.00      3 P:x             4
                        (      54.789 eV)
    87      87      0.667      -0.193 au  C             1.00      1 P:y             4
                        (      -5.239 eV)
    88      88       --         0.169 au  C             1.00      2 P:y             4
                        (       4.589 eV)
    89      89       --         2.013 au  C             1.00      3 P:y             4
                        (      54.789 eV)
    90      90      0.667      -0.193 au  C             1.00      1 P:z             4
                        (      -5.239 eV)
    91      91       --         0.169 au  C             1.00      2 P:z             4
                        (       4.589 eV)
    92      92       --         2.013 au  C             1.00      3 P:z             4
                        (      54.789 eV)
    93      93       --         1.243 au  C             1.00      1 D:z2            4
                        (      33.824 eV)
    94      94       --         1.243 au  C             1.00      1 D:x2-y2         4
                        (      33.824 eV)
    95      95       --         1.243 au  C             1.00      1 D:xy            4
                        (      33.824 eV)
    96      96       --         1.243 au  C             1.00      1 D:xz            4
                        (      33.824 eV)
    97      97       --         1.243 au  C             1.00      1 D:yz            4
                        (      33.824 eV)
    98      98       --         4.016 au  C             1.00      1 F:z3            4
                        (     109.271 eV)
    99      99       --         4.016 au  C             1.00      1 F:z             4
                        (     109.271 eV)
   100     100       --         4.016 au  C             1.00      1 F:xyz           4
                        (     109.271 eV)
   101     101       --         4.016 au  C             1.00      1 F:z2x           4
                        (     109.271 eV)
   102     102       --         4.016 au  C             1.00      1 F:z2y           4
                        (     109.271 eV)
   103     103       --         4.016 au  C             1.00      1 F:x             4
                        (     109.271 eV)
   104     104       --         4.016 au  C             1.00      1 F:y             4
                        (     109.271 eV)
   105     105      2.000     -10.066 au  C             1.00      1 S               5
                        (    -273.921 eV)
   106     106      2.000      -0.501 au  C             1.00      2 S               5
                        (     -13.620 eV)
   107     107       --         0.373 au  C             1.00      3 S               5
                        (      10.158 eV)
   108     108       --         5.405 au  C             1.00      4 S               5
                        (     147.073 eV)
   109     109       --        49.848 au  C             1.00      5 S               5
                        (    1356.422 eV)
   110     110      0.667      -0.193 au  C             1.00      1 P:x             5
                        (      -5.239 eV)
   111     111       --         0.169 au  C             1.00      2 P:x             5
                        (       4.589 eV)
   112     112       --         2.013 au  C             1.00      3 P:x             5
                        (      54.789 eV)
   113     113      0.667      -0.193 au  C             1.00      1 P:y             5
                        (      -5.239 eV)
   114     114       --         0.169 au  C             1.00      2 P:y             5
                        (       4.589 eV)
   115     115       --         2.013 au  C             1.00      3 P:y             5
                        (      54.789 eV)
   116     116      0.667      -0.193 au  C             1.00      1 P:z             5
                        (      -5.239 eV)
   117     117       --         0.169 au  C             1.00      2 P:z             5
                        (       4.589 eV)
   118     118       --         2.013 au  C             1.00      3 P:z             5
                        (      54.789 eV)
   119     119       --         1.243 au  C             1.00      1 D:z2            5
                        (      33.824 eV)
   120     120       --         1.243 au  C             1.00      1 D:x2-y2         5
                        (      33.824 eV)
   121     121       --         1.243 au  C             1.00      1 D:xy            5
                        (      33.824 eV)
   122     122       --         1.243 au  C             1.00      1 D:xz            5
                        (      33.824 eV)
   123     123       --         1.243 au  C             1.00      1 D:yz            5
                        (      33.824 eV)
   124     124       --         4.016 au  C             1.00      1 F:z3            5
                        (     109.271 eV)
   125     125       --         4.016 au  C             1.00      1 F:z             5
                        (     109.271 eV)
   126     126       --         4.016 au  C             1.00      1 F:xyz           5
                        (     109.271 eV)
   127     127       --         4.016 au  C             1.00      1 F:z2x           5
                        (     109.271 eV)
   128     128       --         4.016 au  C             1.00      1 F:z2y           5
                        (     109.271 eV)
   129     129       --         4.016 au  C             1.00      1 F:x             5
                        (     109.271 eV)
   130     130       --         4.016 au  C             1.00      1 F:y             5
                        (     109.271 eV)
   131     131      2.000     -10.066 au  C             1.00      1 S               6
                        (    -273.921 eV)
   132     132      2.000      -0.501 au  C             1.00      2 S               6
                        (     -13.620 eV)
   133     133       --         0.373 au  C             1.00      3 S               6
                        (      10.158 eV)
   134     134       --         5.405 au  C             1.00      4 S               6
                        (     147.073 eV)
   135     135       --        49.848 au  C             1.00      5 S               6
                        (    1356.422 eV)
   136     136      0.667      -0.193 au  C             1.00      1 P:x             6
                        (      -5.239 eV)
   137     137       --         0.169 au  C             1.00      2 P:x             6
                        (       4.589 eV)
   138     138       --         2.013 au  C             1.00      3 P:x             6
                        (      54.789 eV)
   139     139      0.667      -0.193 au  C             1.00      1 P:y             6
                        (      -5.239 eV)
   140     140       --         0.169 au  C             1.00      2 P:y             6
                        (       4.589 eV)
   141     141       --         2.013 au  C             1.00      3 P:y             6
                        (      54.789 eV)
   142     142      0.667      -0.193 au  C             1.00      1 P:z             6
                        (      -5.239 eV)
   143     143       --         0.169 au  C             1.00      2 P:z             6
                        (       4.589 eV)
   144     144       --         2.013 au  C             1.00      3 P:z             6
                        (      54.789 eV)
   145     145       --         1.243 au  C             1.00      1 D:z2            6
                        (      33.824 eV)
   146     146       --         1.243 au  C             1.00      1 D:x2-y2         6
                        (      33.824 eV)
   147     147       --         1.243 au  C             1.00      1 D:xy            6
                        (      33.824 eV)
   148     148       --         1.243 au  C             1.00      1 D:xz            6
                        (      33.824 eV)
   149     149       --         1.243 au  C             1.00      1 D:yz            6
                        (      33.824 eV)
   150     150       --         4.016 au  C             1.00      1 F:z3            6
                        (     109.271 eV)
   151     151       --         4.016 au  C             1.00      1 F:z             6
                        (     109.271 eV)
   152     152       --         4.016 au  C             1.00      1 F:xyz           6
                        (     109.271 eV)
   153     153       --         4.016 au  C             1.00      1 F:z2x           6
                        (     109.271 eV)
   154     154       --         4.016 au  C             1.00      1 F:z2y           6
                        (     109.271 eV)
   155     155       --         4.016 au  C             1.00      1 F:x             6
                        (     109.271 eV)
   156     156       --         4.016 au  C             1.00      1 F:y             6
                        (     109.271 eV)
   157     157      2.000     -10.066 au  C             1.00      1 S               7
                        (    -273.921 eV)
   158     158      2.000      -0.501 au  C             1.00      2 S               7
                        (     -13.620 eV)
   159     159       --         0.373 au  C             1.00      3 S               7
                        (      10.158 eV)
   160     160       --         5.405 au  C             1.00      4 S               7
                        (     147.073 eV)
   161     161       --        49.848 au  C             1.00      5 S               7
                        (    1356.422 eV)
   162     162      0.667      -0.193 au  C             1.00      1 P:x             7
                        (      -5.239 eV)
   163     163       --         0.169 au  C             1.00      2 P:x             7
                        (       4.589 eV)
   164     164       --         2.013 au  C             1.00      3 P:x             7
                        (      54.789 eV)
   165     165      0.667      -0.193 au  C             1.00      1 P:y             7
                        (      -5.239 eV)
   166     166       --         0.169 au  C             1.00      2 P:y             7
                        (       4.589 eV)
   167     167       --         2.013 au  C             1.00      3 P:y             7
                        (      54.789 eV)
   168     168      0.667      -0.193 au  C             1.00      1 P:z             7
                        (      -5.239 eV)
   169     169       --         0.169 au  C             1.00      2 P:z             7
                        (       4.589 eV)
   170     170       --         2.013 au  C             1.00      3 P:z             7
                        (      54.789 eV)
   171     171       --         1.243 au  C             1.00      1 D:z2            7
                        (      33.824 eV)
   172     172       --         1.243 au  C             1.00      1 D:x2-y2         7
                        (      33.824 eV)
   173     173       --         1.243 au  C             1.00      1 D:xy            7
                        (      33.824 eV)
   174     174       --         1.243 au  C             1.00      1 D:xz            7
                        (      33.824 eV)
   175     175       --         1.243 au  C             1.00      1 D:yz            7
                        (      33.824 eV)
   176     176       --         4.016 au  C             1.00      1 F:z3            7
                        (     109.271 eV)
   177     177       --         4.016 au  C             1.00      1 F:z             7
                        (     109.271 eV)
   178     178       --         4.016 au  C             1.00      1 F:xyz           7
                        (     109.271 eV)
   179     179       --         4.016 au  C             1.00      1 F:z2x           7
                        (     109.271 eV)
   180     180       --         4.016 au  C             1.00      1 F:z2y           7
                        (     109.271 eV)
   181     181       --         4.016 au  C             1.00      1 F:x             7
                        (     109.271 eV)
   182     182       --         4.016 au  C             1.00      1 F:y             7
                        (     109.271 eV)
   183     183      2.000     -18.941 au  O             1.00      1 S               8
                        (    -515.403 eV)
   184     184      2.000      -0.876 au  O             1.00      2 S               8
                        (     -23.838 eV)
   185     185       --         0.791 au  O             1.00      3 S               8
                        (      21.524 eV)
   186     186       --        13.422 au  O             1.00      4 S               8
                        (     365.226 eV)
   187     187       --       121.561 au  O             1.00      5 S               8
                        (    3307.838 eV)
   188     188      1.333      -0.331 au  O             1.00      1 P:x             8
                        (      -9.020 eV)
   189     189       --         0.347 au  O             1.00      2 P:x             8
                        (       9.437 eV)
   190     190       --         3.820 au  O             1.00      3 P:x             8
                        (     103.939 eV)
   191     191      1.333      -0.331 au  O             1.00      1 P:y             8
                        (      -9.020 eV)
   192     192       --         0.347 au  O             1.00      2 P:y             8
                        (       9.437 eV)
   193     193       --         3.820 au  O             1.00      3 P:y             8
                        (     103.939 eV)
   194     194      1.333      -0.331 au  O             1.00      1 P:z             8
                        (      -9.020 eV)
   195     195       --         0.347 au  O             1.00      2 P:z             8
                        (       9.437 eV)
   196     196       --         3.820 au  O             1.00      3 P:z             8
                        (     103.939 eV)
   197     197       --         1.071 au  O             1.00      1 D:z2            8
                        (      29.134 eV)
   198     198       --         1.071 au  O             1.00      1 D:x2-y2         8
                        (      29.134 eV)
   199     199       --         1.071 au  O             1.00      1 D:xy            8
                        (      29.134 eV)
   200     200       --         1.071 au  O             1.00      1 D:xz            8
                        (      29.134 eV)
   201     201       --         1.071 au  O             1.00      1 D:yz            8
                        (      29.134 eV)
   202     202       --         3.359 au  O             1.00      1 F:z3            8
                        (      91.410 eV)
   203     203       --         3.359 au  O             1.00      1 F:z             8
                        (      91.410 eV)
   204     204       --         3.359 au  O             1.00      1 F:xyz           8
                        (      91.410 eV)
   205     205       --         3.359 au  O             1.00      1 F:z2x           8
                        (      91.410 eV)
   206     206       --         3.359 au  O             1.00      1 F:z2y           8
                        (      91.410 eV)
   207     207       --         3.359 au  O             1.00      1 F:x             8
                        (      91.410 eV)
   208     208       --         3.359 au  O             1.00      1 F:y             8
                        (      91.410 eV)
   209     209      2.000     -14.160 au  N             1.00      1 S               9
                        (    -385.319 eV)
   210     210      2.000      -0.678 au  N             1.00      2 S               9
                        (     -18.450 eV)
   211     211       --         0.517 au  N             1.00      3 S               9
                        (      14.073 eV)
   212     212       --         6.872 au  N             1.00      4 S               9
                        (     186.990 eV)
   213     213       --        63.432 au  N             1.00      5 S               9
                        (    1726.082 eV)
   214     214      1.000      -0.260 au  N             1.00      1 P:x             9
                        (      -7.062 eV)
   215     215       --         0.281 au  N             1.00      2 P:x             9
                        (       7.649 eV)
   216     216       --         3.275 au  N             1.00      3 P:x             9
                        (      89.105 eV)
   217     217      1.000      -0.260 au  N             1.00      1 P:y             9
                        (      -7.062 eV)
   218     218       --         0.281 au  N             1.00      2 P:y             9
                        (       7.649 eV)
   219     219       --         3.275 au  N             1.00      3 P:y             9
                        (      89.105 eV)
   220     220      1.000      -0.260 au  N             1.00      1 P:z             9
                        (      -7.062 eV)
   221     221       --         0.281 au  N             1.00      2 P:z             9
                        (       7.649 eV)
   222     222       --         3.275 au  N             1.00      3 P:z             9
                        (      89.105 eV)
   223     223       --         1.250 au  N             1.00      1 D:z2            9
                        (      34.005 eV)
   224     224       --         1.250 au  N             1.00      1 D:x2-y2         9
                        (      34.005 eV)
   225     225       --         1.250 au  N             1.00      1 D:xy            9
                        (      34.005 eV)
   226     226       --         1.250 au  N             1.00      1 D:xz            9
                        (      34.005 eV)
   227     227       --         1.250 au  N             1.00      1 D:yz            9
                        (      34.005 eV)
   228     228       --         4.013 au  N             1.00      1 F:z3            9
                        (     109.190 eV)
   229     229       --         4.013 au  N             1.00      1 F:z             9
                        (     109.190 eV)
   230     230       --         4.013 au  N             1.00      1 F:xyz           9
                        (     109.190 eV)
   231     231       --         4.013 au  N             1.00      1 F:z2x           9
                        (     109.190 eV)
   232     232       --         4.013 au  N             1.00      1 F:z2y           9
                        (     109.190 eV)
   233     233       --         4.013 au  N             1.00      1 F:x             9
                        (     109.190 eV)
   234     234       --         4.013 au  N             1.00      1 F:y             9
                        (     109.190 eV)
   235     235      2.000    -488.642 au  Br            1.00      1 S              10
                        (  -13296.634 eV)
   236     236      2.000     -63.585 au  Br            1.00      2 S              10
                        (   -1730.246 eV)
   237     237      2.000      -8.709 au  Br            1.00      3 S              10
                        (    -236.987 eV)
   238     238      2.000      -0.733 au  Br            1.00      4 S              10
                        (     -19.946 eV)
   239     239       --         0.224 au  Br            1.00      5 S              10
                        (       6.099 eV)
   240     240       --         2.414 au  Br            1.00      6 S              10
                        (      65.683 eV)
   241     241       --        13.546 au  Br            1.00      7 S              10
                        (     368.609 eV)
   242     242       --       615.209 au  Br            1.00      8 S              10
                        (   16740.684 eV)
   243     243      2.000     -56.116 au  Br            1.00      1 P:x            10
                        (   -1526.987 eV)
   244     244      2.000      -6.365 au  Br            1.00      2 P:x            10
                        (    -173.205 eV)
   245     245      1.667      -0.284 au  Br            1.00      3 P:x            10
                        (      -7.716 eV)
   246     246       --         0.137 au  Br            1.00      4 P:x            10
                        (       3.720 eV)
   247     247       --         1.208 au  Br            1.00      5 P:x            10
                        (      32.874 eV)
   248     248       --         8.734 au  Br            1.00      6 P:x            10
                        (     237.661 eV)
   249     249       --        95.627 au  Br            1.00      7 P:x            10
                        (    2602.141 eV)
   250     250      2.000     -56.116 au  Br            1.00      1 P:y            10
                        (   -1526.987 eV)
   251     251      2.000      -6.365 au  Br            1.00      2 P:y            10
                        (    -173.205 eV)
   252     252      1.667      -0.284 au  Br            1.00      3 P:y            10
                        (      -7.716 eV)
   253     253       --         0.137 au  Br            1.00      4 P:y            10
                        (       3.720 eV)
   254     254       --         1.208 au  Br            1.00      5 P:y            10
                        (      32.874 eV)
   255     255       --         8.734 au  Br            1.00      6 P:y            10
                        (     237.661 eV)
   256     256       --        95.627 au  Br            1.00      7 P:y            10
                        (    2602.141 eV)
   257     257      2.000     -56.116 au  Br            1.00      1 P:z            10
                        (   -1526.987 eV)
   258     258      2.000      -6.365 au  Br            1.00      2 P:z            10
                        (    -173.205 eV)
   259     259      1.667      -0.284 au  Br            1.00      3 P:z            10
                        (      -7.716 eV)
   260     260       --         0.137 au  Br            1.00      4 P:z            10
                        (       3.720 eV)
   261     261       --         1.208 au  Br            1.00      5 P:z            10
                        (      32.874 eV)
   262     262       --         8.734 au  Br            1.00      6 P:z            10
                        (     237.661 eV)
   263     263       --        95.627 au  Br            1.00      7 P:z            10
                        (    2602.141 eV)
   264     264      2.000      -2.452 au  Br            1.00      1 D:z2           10
                        (     -66.719 eV)
   265     265       --         0.270 au  Br            1.00      2 D:z2           10
                        (       7.341 eV)
   266     266       --         2.706 au  Br            1.00      3 D:z2           10
                        (      73.633 eV)
   267     267       --        20.525 au  Br            1.00      4 D:z2           10
                        (     558.519 eV)
   268     268      2.000      -2.452 au  Br            1.00      1 D:x2-y2        10
                        (     -66.719 eV)
   269     269       --         0.270 au  Br            1.00      2 D:x2-y2        10
                        (       7.341 eV)
   270     270       --         2.706 au  Br            1.00      3 D:x2-y2        10
                        (      73.633 eV)
   271     271       --        20.525 au  Br            1.00      4 D:x2-y2        10
                        (     558.519 eV)
   272     272      2.000      -2.452 au  Br            1.00      1 D:xy           10
                        (     -66.719 eV)
   273     273       --         0.270 au  Br            1.00      2 D:xy           10
                        (       7.341 eV)
   274     274       --         2.706 au  Br            1.00      3 D:xy           10
                        (      73.633 eV)
   275     275       --        20.525 au  Br            1.00      4 D:xy           10
                        (     558.519 eV)
   276     276      2.000      -2.452 au  Br            1.00      1 D:xz           10
                        (     -66.719 eV)
   277     277       --         0.270 au  Br            1.00      2 D:xz           10
                        (       7.341 eV)
   278     278       --         2.706 au  Br            1.00      3 D:xz           10
                        (      73.633 eV)
   279     279       --        20.525 au  Br            1.00      4 D:xz           10
                        (     558.519 eV)
   280     280      2.000      -2.452 au  Br            1.00      1 D:yz           10
                        (     -66.719 eV)
   281     281       --         0.270 au  Br            1.00      2 D:yz           10
                        (       7.341 eV)
   282     282       --         2.706 au  Br            1.00      3 D:yz           10
                        (      73.633 eV)
   283     283       --        20.525 au  Br            1.00      4 D:yz           10
                        (     558.519 eV)
   284     284       --         0.857 au  Br            1.00      1 F:z3           10
                        (      23.313 eV)
   285     285       --         0.857 au  Br            1.00      1 F:z            10
                        (      23.313 eV)
[...]
                                   13.59%     2 P:x             4.589  0.00     3 C
                                    8.72%     2 P:z             4.589  0.00     4 C
                                    8.23%     1 P:y            -5.239  0.67     2 C
                                   -7.07%     5 S               6.099  0.00    10 Br
                                    5.76%     1 P:z            -5.239  0.67     2 C
                                    4.80%     4 P:x             3.720  0.00    10 Br
                                   -4.72%     3 S              14.073  0.00     9 N
                                    4.63%     2 P:x             4.589  0.00     7 C
                                    4.57%     2 P:z             4.589  0.00     1 C
                                    4.16%     2 P:x             4.589  0.00     4 C
                                   -4.11%     2 S               2.394  0.00    11 H
                                    3.71%     2 S             -13.620  2.00     2 C
                                    3.61%     2 P:x             4.589  0.00     2 C
                                    3.52%     1 P:z            -5.239  0.67     6 C
                                   -3.44%     3 S              10.158  0.00     2 C
                                    3.29%     2 P:x             4.589  0.00     5 C
                                   -3.23%     2 P:y             4.589  0.00     1 C
                                    3.08%     2 P:z             4.589  0.00     6 C
                                    3.04%     1 S              -6.532  1.00    13 H
                                    3.01%     1 P:z            -5.239  0.67     5 C
                                    2.65%     2 D:x2-y2         7.341  0.00    10 Br
                                    2.46%     1 P:y            -5.239  0.67     3 C
                                    2.09%     1 P:x            -5.239  0.67     3 C
                                    2.04%     2 P:x             4.589  0.00     1 C
                                   -1.74%     2 P:x             9.437  0.00     8 O
                                   -1.72%     2 S             -13.620  2.00     5 C
                                    1.63%     1 P:x            -9.020  1.33     8 O
                                    1.60%     1 P:y            -5.239  0.67     5 C
                                   -1.52%     3 S              10.158  0.00     5 C
                                    1.46%     1 P:x            -5.239  0.67     6 C
                                    1.33%     1 P:y            -9.020  1.33     8 O
                                   -1.25%     2 S               2.394  0.00    14 H
                                    1.21%     1 P:y            -7.062  1.00     9 N
                                    1.19%     2 S               2.394  0.00    13 H
                                   -1.17%     3 P:x            -7.716  1.67    10 Br
                                    1.11%     1 P:y            -5.239  0.67     4 C
                                   -1.10%     2 P:y             4.589  0.00     7 C
                                   -1.09%     3 S              10.158  0.00     1 C
       2.062  0.00    60 A         26.77%     2 P:x             4.589  0.00     6 C
                                   24.65%     2 P:z             4.589  0.00     4 C
                                  -15.62%     5 S               6.099  0.00    10 Br
                                   13.67%     2 P:z             4.589  0.00     5 C
                                   13.03%     4 P:x             3.720  0.00    10 Br
                                    6.80%     1 P:x            -5.239  0.67     2 C
                                   -6.64%     3 S              14.073  0.00     9 N
                                    6.44%     2 S             -13.620  2.00     4 C
                                   -5.37%     3 S              10.158  0.00     6 C
                                    4.83%     1 S              -6.532  1.00    12 H
                                   -4.61%     3 S              10.158  0.00     4 C
                                    4.25%     1 P:z            -5.239  0.67     3 C
                                    3.90%     1 P:z            -5.239  0.67     4 C
                                    3.61%     2 P:x             4.589  0.00     2 C
                                    3.45%     2 P:z             4.589  0.00     2 C
                                    3.36%     4 P:z             3.720  0.00    10 Br
                                    3.29%     2 S             -13.620  2.00     6 C
                                   -3.28%     2 S             -13.620  2.00     5 C
                                    3.24%     1 P:z            -5.239  0.67     5 C
                                    3.17%     1 P:x            -5.239  0.67     7 C
                                    3.10%     2 P:x             4.589  0.00     1 C
                                    2.93%     1 S              -6.532  1.00    13 H
                                    2.87%     2 D:x2-y2         7.341  0.00    10 Br
                                   -2.61%     2 P:z             4.589  0.00     1 C
                                   -2.56%     3 P:x            -7.716  1.67    10 Br
                                   -2.46%     3 S              10.158  0.00     5 C
                                   -2.28%     2 P:x             4.589  0.00     4 C
                                    2.01%     1 P:z            -5.239  0.67     1 C
                                    1.80%     1 P:x            -5.239  0.67     6 C
                                    1.45%     2 S             -13.620  2.00     3 C
                                    1.42%     2 P:z             4.589  0.00     6 C
                                    1.41%     1 P:x            -5.239  0.67     3 C
                                   -1.38%     2 P:x             4.589  0.00     7 C
                                   -1.35%     4 S             -19.946  2.00    10 Br
                                    1.25%     2 D:xz            7.341  0.00    10 Br
                                    1.17%     1 P:y            -5.239  0.67     1 C
                                   -1.07%     3 P:z            54.789  0.00     4 C
                                   -1.04%     2 P:y             4.589  0.00     1 C
                                   -1.03%     3 S              10.158  0.00     3 C
                                    1.02%     2 D:xy            7.341  0.00    10 Br

 Energy gradients wrt nuclear displacements
 ==========================================

     Atom      Cartesian (a.u./angstrom)
                 X         Y         Z
 ----------------------------------------
     1 C    -0.000088  0.000041 -0.000007
     2 C     0.000036  0.000048 -0.000028
     3 O     0.000080  0.000021 -0.000004
     4 C     0.000073  0.000129  0.000009
     5 C    -0.000020 -0.000035  0.000018
     6 C     0.000045 -0.000091 -0.000049
     7 N     0.000003 -0.000109  0.000025
     8 C     0.000057 -0.000110  0.000007
     9 Br   -0.000017 -0.000220 -0.000009
    10 C    -0.000055  0.000065  0.000041
    11 H    -0.000136  0.000044  0.000005
    12 H     0.000067 -0.000030 -0.000006
    13 H     0.000071  0.000102 -0.000016
    14 H    -0.000116  0.000143  0.000016
 ----------------------------------------



 =======================================================================
 Electrostatic potential at the Nuclei due to electrons and other nuclei
 =======================================================================
  
         Atom                  Potential
         ----                  ---------
     1)   C                  14.75706685
     2)   C                  14.68602502
     3)   O                  22.36791775
     4)   C                  14.68522437
     5)   C                  14.72577187
     6)   C                  14.75347481
     7)   N                  18.43005032
     8)   C                  14.69945261
     9)   Br                180.49424303
    10)   C                  14.75710496
    11)   H                   1.06271318
    12)   H                   1.06570348
    13)   H                   1.06813779
    14)   H                   1.06355561
 Mulliken charges used for AMS results%charges...


    =====================
     CALCULATION RESULTS
    =====================

Energy (hartree)            -3.17933236

Gradients (hartree/bohr)
  Index   Atom            d/dx            d/dy            d/dz
      1      C   -0.0000464108    0.0000218971   -0.0000039001
      2      C    0.0000192754    0.0000254509   -0.0000149832
      3      O    0.0000423999    0.0000112662   -0.0000021301
      4      C    0.0000386768    0.0000683304    0.0000045855
      5      C   -0.0000106271   -0.0000183082    0.0000093568
      6      C    0.0000235620   -0.0000482365   -0.0000258391
      7      N    0.0000015772   -0.0000578304    0.0000130908
      8      C    0.0000299219   -0.0000582155    0.0000036602
      9     Br   -0.0000088882   -0.0001164282   -0.0000045187
     10      C   -0.0000291147    0.0000345637    0.0000219084
     11      H   -0.0000719893    0.0000234891    0.0000026684
     12      H    0.0000356521   -0.0000157208   -0.0000034276
     13      H    0.0000373166    0.0000539815   -0.0000087193
     14      H   -0.0000613518    0.0000757607    0.0000082478


--------------
Atomic charges
--------------
  Index   Atom    Charge
      1      C    0.2256
      2      C    0.4726
      3      O   -0.5246
      4      C    0.4828
      5      C   -0.0256
      6      C    0.1127
      7      N   -0.2613
      8      C    0.1889
      9     Br   -0.1467
     10      C    0.2363
     11      H   -0.2045
     12      H   -0.1813
     13      H   -0.1723
     14      H   -0.2028


Dipole moment vector    (Debye):     1.18906341    1.44435682   -3.74411798
              magnitude (Debye):     4.18550569


-----------------------
Molecular orbitals info
-----------------------
n orbitals:              334
n spin:                    1

Note: only printing virtual orbitals with
      energy smaller than HOMO + 100. eV

HOMO (eV):              -6.0610
LUMO (eV):              -3.1082
HOMO-LUMO gap (eV):      2.9528

   Index   Energy (eV)    Occupation
     215       93.5199         0.000       
     214       93.0247         0.000       
     213       91.8829         0.000       
     212       91.4352         0.000       
     211       90.9246         0.000       
     210       89.8858         0.000       
     209       89.4059         0.000       
     208       89.0973         0.000       
     207       88.1523         0.000       
     206       86.7979         0.000       
     205       86.4215         0.000       
     204       85.2154         0.000       
     203       84.6118         0.000       
     202       83.6303         0.000       
     201       83.0216         0.000       
     200       81.8555         0.000       
     199       80.7871         0.000       
     198       80.5106         0.000       
     197       79.9940         0.000       
     196       79.5028         0.000       
     195       78.6764         0.000       
     194       77.6035         0.000       
     193       76.9009         0.000       
     192       76.3260         0.000       
     191       75.6407         0.000       
     190       74.9194         0.000       
     189       74.3864         0.000       
     188       73.7848         0.000       
     187       72.6058         0.000       
     186       72.0764         0.000       
     185       71.9913         0.000       
     184       70.6781         0.000       
     183       69.2247         0.000       
     182       68.5205         0.000       
     181       66.8257         0.000       
     180       65.9141         0.000       
     179       65.2558         0.000       
     178       64.8031         0.000       
     177       63.7490         0.000       
     176       62.3868         0.000       
     175       61.7244         0.000       
     174       61.4779         0.000       
     173       60.7542         0.000       
     172       60.3397         0.000       
     171       59.0077         0.000       
     170       58.6686         0.000       
     169       57.9027         0.000       
     168       57.4093         0.000       
     167       56.3337         0.000       
     166       55.8454         0.000       
     165       54.7541         0.000       
     164       54.4657         0.000       
     163       53.5585         0.000       
     162       53.0036         0.000       
     161       51.0105         0.000       
     160       49.9368         0.000       
     159       48.9318         0.000       
     158       47.0889         0.000       
     157       46.8876         0.000       
     156       46.8397         0.000       
     155       45.6618         0.000       
     154       44.8924         0.000       
     153       44.3612         0.000       
     152       44.0114         0.000       
     151       43.7731         0.000       
     150       43.1673         0.000       
     149       42.3384         0.000       
     148       41.7187         0.000       
     147       41.6281         0.000       
     146       40.8708         0.000       
     145       39.9979         0.000       
     144       39.1722         0.000       
     143       38.9249         0.000       
     142       38.7352         0.000       
     141       37.3811         0.000       
     140       36.6829         0.000       
     139       36.3865         0.000       
     138       36.1647         0.000       
     137       35.3297         0.000       
     136       34.7941         0.000       
     135       34.5089         0.000       
     134       34.0624         0.000       
     133       33.6693         0.000       
     132       32.5235         0.000       
     131       31.5533         0.000       
     130       31.2008         0.000       
     129       30.2928         0.000       
     128       29.9354         0.000       
     127       29.8006         0.000       
     126       29.0872         0.000       
     125       28.7366         0.000       
     124       28.4578         0.000       
     123       27.9713         0.000       
     122       27.1627         0.000       
     121       26.7835         0.000       
     120       26.3823         0.000       
     119       25.8471         0.000       
     118       25.5931         0.000       
     117       25.0263         0.000       
     116       24.5048         0.000       
     115       24.2195         0.000       
     114       23.4910         0.000       
     113       23.2084         0.000       
     112       22.9431         0.000       
     111       22.8021         0.000       
     110       22.6090         0.000       
     109       21.4491         0.000       
     108       21.0327         0.000       
     107       20.4905         0.000       
     106       19.9604         0.000       
     105       19.2855         0.000       
     104       18.6551         0.000       
     103       18.5186         0.000       
     102       17.6681         0.000       
     101       17.0501         0.000       
     100       16.5185         0.000       
      99       16.1828         0.000       
      98       15.5072         0.000       
      97       15.1822         0.000       
      96       15.1125         0.000       
      95       14.4723         0.000       
      94       14.1207         0.000       
      93       13.1143         0.000       
      92       12.2592         0.000       
      91       11.9232         0.000       
      90       11.3346         0.000       
      89       11.1240         0.000       
      88       10.7902         0.000       
      87        9.9000         0.000       
      86        9.6832         0.000       
      85        9.3951         0.000       
      84        9.0347         0.000       
      83        8.4471         0.000       
      82        8.3196         0.000       
      81        8.3032         0.000       
      80        7.8783         0.000       
      79        7.5319         0.000       
      78        7.2069         0.000       
      77        7.0893         0.000       
      76        6.5876         0.000       
      75        6.4661         0.000       
      74        5.9751         0.000       
      73        5.7454         0.000       
      72        5.5473         0.000       
      71        5.1496         0.000       
      70        5.0676         0.000       
      69        4.7716         0.000       
      68        4.4322         0.000       
      67        4.3630         0.000       
      66        4.0271         0.000       
      65        3.5693         0.000       
      64        3.4188         0.000       
      63        2.8995         0.000       
      62        2.7086         0.000       
      61        2.6703         0.000       
      60        2.0619         0.000       
      59        1.7668         0.000       
      58        1.5095         0.000       
      57        0.9841         0.000       
      56        0.7592         0.000       
      55        0.5025         0.000       
      54        0.2666         0.000       
      53       -0.3604         0.000       
      52       -0.7609         0.000       
      51       -1.4288         0.000       
      50       -1.7581         0.000       
      49       -3.1082         0.000 < LUMO
      48       -6.0610         2.000 < HOMO
      47       -6.9740         2.000       
      46       -7.0714         2.000       
      45       -7.8661         2.000       
      44       -8.3629         2.000       
      43       -8.5537         2.000       
      42       -8.7534         2.000       
      41       -9.0305         2.000       
      40       -9.5354         2.000       
      39      -10.1659         2.000       
      38      -10.3427         2.000       
      37      -10.7548         2.000       
      36      -10.9653         2.000       
      35      -11.8502         2.000       
      34      -12.8558         2.000       
      33      -13.7085         2.000       
      32      -14.3715         2.000       
      31      -15.2146         2.000       
      30      -16.2918         2.000       
      29      -18.8283         2.000       
      28      -19.7279         2.000       
      27      -20.5987         2.000       
      26      -21.8968         2.000       
      25      -22.6575         2.000       
      24      -27.0178         2.000       
      23      -66.6689         2.000       
      22      -66.6785         2.000       
      21      -66.9222         2.000       
      20      -66.9521         2.000       
      19      -67.0419         2.000       
      18     -173.2363         2.000       
      17     -173.2766         2.000       
      16     -173.6141         2.000       
      15     -237.1473         2.000       
      14     -270.9269         2.000       
      13     -270.9452         2.000       
      12     -271.2882         2.000       
      11     -271.6991         2.000       
      10     -272.5127         2.000       
       9     -272.7237         2.000       
       8     -272.7448         2.000       
       7     -381.7578         2.000       
       6     -512.3723         2.000       
       5    -1527.3547         2.000       
       4    -1527.3680         2.000       
       3    -1527.4812         2.000       
       2    -1730.4904         2.000       
       1   -13296.9718         2.000       

AMS application finished. Exiting.
NORMAL TERMINATION
     Total cpu time:     405.50
  Total system time:       1.50
 Total elapsed time:     409.33
NORMAL TERMINATION
