srun: Job 663081 step creation temporarily disabled, retrying (Requested nodes are busy)
srun: Job 663081 step creation still disabled, retrying (Requested nodes are busy)
srun: Step created for StepId=663081.62

 *******************************************************************************
 *                                                                             *
 *  --------------------------------                                           *
 *   Amsterdam Modeling Suite (AMS)              2026.103                      *
 *  --------------------------------                                           *
 *                                               r260501 2026-05-01 873454b5   *
 *                                                                             *
 *                                                                             *
 *                              =================                              *
 *                              |               |                              *
 *                              |     A M S     |                              *
 *                              |               |                              *
 *                              =================                              *
 *                                                                             *
 *                                                                             *
 *   Online information and documentation:  https://www.scm.com/support/       *
 *   E-mail:  support@scm.com   info@scm.com                                   *
 *                                                                             *
 *   Scientific publications using AMS results must be properly referenced     *
 *   See the User Manuals (or the web site) for recommended citations          *
 *   The terms and conditions of the End User License Agreement apply to       *
 *   the use of AMS, https://www.scm.com/license-terms/                        *
 *                                                                             *
 **********************  x86_64_linux_intel / intelmpi  ************************
 
 Licensed to: Jong-June Jeon / University of Seoul 2026-06-02 13:44:15
 SCM User ID: u30731
  
 AMS 2026.103  RunTime: Jun03-2026 23:26:43  ShM Nodes: 1  Procs: 1

 AMS jobname: c2_fragB_ts
 AMS jobid  : 880769390

 Start   directory: /gpfs/home1/yeseo1ee/projects/eda-asm-prediction/ADF_800/adf_outputs/batch_005/qmrxn20_sn2_A_A_C_E_C_B/
 Results directory: /gpfs/home1/yeseo1ee/projects/eda-asm-prediction/ADF_800/adf_outputs/batch_005/qmrxn20_sn2_A_A_C_E_C_B/c2_fragB_ts.results/
 Scratch directory: /tmp/amstmp_c2_fragB_ts_kid0.880769390/

 RNG seed: -684677660 635398 680646818 -560198469 2014013635 -2056470170 1478267870 -395902399



                      ************************************************************************
                      *  ADF 2026.103  RunTime: Jun03-2026 23:26:43  ShM Nodes: 1  Procs: 1  *
                      ************************************************************************
  

       ****************************
       * SINGLE POINT CALCULATION *
       ****************************

--------
Geometry
--------
Formula: C3H5BrN2
Atoms
  Index Symbol   x (angstrom)   y (angstrom)   z (angstrom)
      1      C     0.55337492    -0.03585709    -0.01271621
      2      H     1.72450253     1.61078032    -0.00013999
      3     Br    -1.68915860    -0.36926759    -0.05055599
      4      C     0.63953600     1.46967637    -0.00067225
      5      H     0.75907501    -0.51300945    -0.95141648
      6      H     0.72691844    -0.57130634     0.89972909
      7      C     0.09538427     2.05739794     1.24076762
      8      N    -0.29912913     2.62397070     2.19218804
      9      N     0.07072073     2.06099544    -1.20724433
     10      H     0.22785924     3.06169825    -1.18854700
     11      H    -0.93005463     1.89499358    -1.20458915

Total System Charge              0.00000


----------------
ADF Engine Input
----------------
 
   Basis
     Type TZ2P
     Core None
   End
   XC
     GGA BLYP
     Dispersion GRIMME3 BJDAMP
   End
   Symmetry NOSYM
   NumericalQuality Normal
   Unrestricted No
   SCF
     Iterations 200
     Converge 1.0e-6
   End
   Save TAPE21
 

 Title: *** (NO TITLE) ***

 *** adf ***



 ===========================
 A T T A C H E D   F I L E S
 ===========================
  



 ===============================
 M O D E L   P A R A M E T E R S
 ===============================
  
 DENSITY FUNCTIONAL POTENTIAL (scf)
    LDA:                               Exchange only                           == Not Default ==
    Gradient Corrections:              Becke88 LYP                             == Not Default ==

 SPIN  (restricted / unrestr.)
    Molecule:                          Restricted                               
    Fragments:                         Restricted                               

 OTHER ASPECTS
    Relativistic Corrections:          scalar (ZORA,MAPA)                       

    Nuclear Charge Density Model:      Point Charge Nuclei                      
    Core Treatment:                    Frozen Orbital(s)                        

    Hyperfine or Zeeman Interaction:   ---                                      

 Settings for Grimme D3 dispersion correction

      damping                        BJ
      s6                          1.000
      s8                          2.700
      a1                          0.430
      a2                          4.236

 Other (technical) parameters

      alpha                      14.000
      version                         4
 


 Fragment File(s)
 ----------------
 C:
         file : /gpfs/home1/yeseo1ee/projects/eda-asm-prediction/ADF_800/adf_outputs/batch_005/qmrxn20_sn2_A_A_C_E_C_B/c2_fragB_ts.results/t21.50BA88D5.C
         jobid: 0
         title: Carbon (TZ2P)
 H:
         file : /gpfs/home1/yeseo1ee/projects/eda-asm-prediction/ADF_800/adf_outputs/batch_005/qmrxn20_sn2_A_A_C_E_C_B/c2_fragB_ts.results/t21.6F35CCAB.H
         jobid: 0
         title: Hydrogen (TZ2P)
 Br:
         file : /gpfs/home1/yeseo1ee/projects/eda-asm-prediction/ADF_800/adf_outputs/batch_005/qmrxn20_sn2_A_A_C_E_C_B/c2_fragB_ts.results/t21.42F58B50.Br
         jobid: 0
         title: Bromine (TZ2P)
 N:
         file : /gpfs/home1/yeseo1ee/projects/eda-asm-prediction/ADF_800/adf_outputs/batch_005/qmrxn20_sn2_A_A_C_E_C_B/c2_fragB_ts.results/t21.44EAA48D.N
         jobid: 0
         title: Nitrogen (TZ2P)



 ===============
 G E O M E T R Y  ***  3D  Molecule  ***
 ===============
  

 ATOMS
 =====                            X Y Z                    CHARGE
                                (Angstrom)             Nucl     +Core       At.Mass
                       --------------------------    ----------------       -------
    1  C               0.5534   -0.0359   -0.0127      6.00      6.00       12.0000
    2  H               1.7245    1.6108   -0.0001      1.00      1.00        1.0078
    3  Br             -1.6892   -0.3693   -0.0506     35.00     35.00       78.9183
    4  C               0.6395    1.4697   -0.0007      6.00      6.00       12.0000
    5  H               0.7591   -0.5130   -0.9514      1.00      1.00        1.0078
    6  H               0.7269   -0.5713    0.8997      1.00      1.00        1.0078
    7  C               0.0954    2.0574    1.2408      6.00      6.00       12.0000
    8  N              -0.2991    2.6240    2.1922      7.00      7.00       14.0031
    9  N               0.0707    2.0610   -1.2072      7.00      7.00       14.0031
   10  H               0.2279    3.0617   -1.1885      1.00      1.00        1.0078
   11  H              -0.9301    1.8950   -1.2046      1.00      1.00        1.0078


 FRAGMENTS
 =========                                     Atoms in this Fragment     Cart. coord.s (Angstrom)
                                               -------------------------------------------------------
    1  C                                                 1  C            0.5534   -0.0359   -0.0127
    2  C                                                 4  C            0.6395    1.4697   -0.0007
    3  C                                                 7  C            0.0954    2.0574    1.2408
    4  H                                                 2  H            1.7245    1.6108   -0.0001
    5  H                                                 5  H            0.7591   -0.5130   -0.9514
    6  H                                                 6  H            0.7269   -0.5713    0.8997
    7  H                                                10  H            0.2279    3.0617   -1.1885
    8  H                                                11  H           -0.9301    1.8950   -1.2046
    9  Br                                                3  Br          -1.6892   -0.3693   -0.0506
   10  N                                                 8  N           -0.2991    2.6240    2.1922
   11  N                                                 9  N            0.0707    2.0610   -1.2072


 Interatomic Distance Matrix (Angstrom)
 --------------------------------------

   1)     0.000
   2)     2.021   0.000
   3)     2.267   3.947   0.000
   4)     1.508   1.094   2.968   0.000
   5)     1.073   2.519   2.613   2.202   0.000
   6)     1.072   2.563   2.604   2.232   1.852   0.000
   7)     2.482   2.096   3.277   1.477   3.443   2.725   0.000
   8)     3.559   3.151   3.990   2.650   4.565   3.596   1.176   0.000
   9)     2.461   2.096   3.216   1.459   2.677   3.435   2.448   3.466   0.000
  10)     3.329   2.399   4.092   2.029   3.622   4.220   2.632   3.449   1.013   0.000
  11)     2.711   2.929   2.652   2.023   2.952   3.641   2.657   3.531   1.014   1.644
          0.000

 Min. Distance =    1.0131
 Max. Distance =    4.5654



 =====================================
 S Y M M E T R Y ,   E L E C T R O N S
 =====================================
  
 Symmetry: NOSYM

 Irreducible Representations, including subspecies
 -------------------------------------------------
 A


 Configuration of Valence Electrons
 ==================================
 ( determined in the SCF procedure )

 Total:   72

 Net Charge: 0 (Nuclei minus Electrons)

 Aufbau principle for MO occupations will be applied through SCF cycle no.     100
 Thereafter, the program will assign electrons to MOs that are spatially
 similar to the occupied MOs in a "reference" cycle ("KeepOrbitals").
 The reference cycle is always the PREVIOUS cycle: it will evolve with
 the SCF procedure.
 ***************************************************************************************************



                                      ****************************************
                                      *  B U I L D : (Fragments, Functions)  *
                                      ****************************************
  



 =======
 S F O s  ***  (Symmetrized Fragment Orbitals)  ***
 =======
  
 SFOs are linear combinations of (valence) Fragment Orbitals (FOs), such that the SFOs transform as the
 irreducible representations of the (molecular) symmetry group. Each SFO is therefore characterized by
 an irrep of the molecule and by a few (or only one) generating FOs.
 The SFOs constitute a symmetry-adapted basis for the Fock matrix. The MO eigenvector coefficients in
 this basis provide a direct interpretation of the MOs in terms of Frontier Orbital Theory.

 The SFOs are combined with auxiliary Core Functions (CFs) to ensure orthogonalization on the (frozen)
 Core Orbitals (COs). The Core-orthogonalized SFOs (CSFOs) constitute the true Fock basis.

 The FOs, and hence also the (C)SFOs are combinations of the elementary basis functions (BAS). The basis
 functions that participate in the description of the SFOs depend on the irrep. The indices of the
 involved functions are printed below for each irrep.
 (The complete list of primitive basis functions is printed in another section)

 Total nr. of (C)SFOs (summation over all irreps) :   241

 NOTE: a (C)SFO that is defined as a combination of more than one FO is usually NOT normalized.



                                       === A ===
 Nr. of SFOs :  241
 Cartesian basis functions that participate in this irrep (total number =   273) :
      1     2     3     4     5     6     9    12     7    10
     13     8    11    14    15    16    17    18    19    20
     21    22    23    24    25    26    27    28    29    30
     31    32    33    34    35    36    39    42    37    40
     43    38    41    44    45    46    47    48    49    50
     51    52    53    54    55    56    57    58    59    60
     61    62    63    64    65    66    69    72    67    70
     73    68    71    74    75    76    77    78    79    80
     81    82    83    84    85    86    87    88    89    90
     91    92    93    94    95    96    97    98    99   100
    101   102   103   104   105   106   107   108   109   110
    111   112   113   114   115   116   117   118   119   120
    121   122   123   124   125   126   127   128   129   130
    131   132   133   134   135   136   137   138   139   140
    141   142   143   144   145   146   147   148   149   150
    151   152   153   160   161   186   187   188   154   157
    162   165   189   192   195   155   158   163   166   190
    193   196   156   159   164   167   191   194   197   168
    174   180   198   169   175   181   199   170   176   182
    200   171   177   183   201   172   178   184   202   173
    179   185   203   204   205   206   207   208   209   210
    211   212   213   214   215   216   217   218   219   222
    225   220   223   226   221   224   227   228   229   230
    231   232   233   234   235   236   237   238   239   240
    241   242   243   244   245   246   247   248   249   252
    255   250   253   256   251   254   257   258   259   260
    261   262   263   264   265   266   267   268   269   270
    271   272   273

    SFO  (index         Fragment          Generating    Expansion in Fragment Orbitals
  indx  incl.CFs)   Occup   Orb.Energy   FragmentType  Coeff.   Orbital     on Fragment
 --------------------------------------------------------------------------------------
     1       1      2.000     -10.066 au  C             1.00      1 S               1
                        (    -273.921 eV)
     2       2      2.000      -0.501 au  C             1.00      2 S               1
                        (     -13.620 eV)
     3       3       --         0.373 au  C             1.00      3 S               1
                        (      10.158 eV)
     4       4       --         5.405 au  C             1.00      4 S               1
                        (     147.073 eV)
     5       5       --        49.848 au  C             1.00      5 S               1
                        (    1356.422 eV)
     6       6      0.667      -0.193 au  C             1.00      1 P:x             1
                        (      -5.239 eV)
     7       7       --         0.169 au  C             1.00      2 P:x             1
                        (       4.589 eV)
     8       8       --         2.013 au  C             1.00      3 P:x             1
                        (      54.789 eV)
     9       9      0.667      -0.193 au  C             1.00      1 P:y             1
                        (      -5.239 eV)
    10      10       --         0.169 au  C             1.00      2 P:y             1
                        (       4.589 eV)
    11      11       --         2.013 au  C             1.00      3 P:y             1
                        (      54.789 eV)
    12      12      0.667      -0.193 au  C             1.00      1 P:z             1
                        (      -5.239 eV)
    13      13       --         0.169 au  C             1.00      2 P:z             1
                        (       4.589 eV)
    14      14       --         2.013 au  C             1.00      3 P:z             1
                        (      54.789 eV)
    15      15       --         1.243 au  C             1.00      1 D:z2            1
                        (      33.824 eV)
    16      16       --         1.243 au  C             1.00      1 D:x2-y2         1
                        (      33.824 eV)
    17      17       --         1.243 au  C             1.00      1 D:xy            1
                        (      33.824 eV)
    18      18       --         1.243 au  C             1.00      1 D:xz            1
                        (      33.824 eV)
    19      19       --         1.243 au  C             1.00      1 D:yz            1
                        (      33.824 eV)
    20      20       --         4.016 au  C             1.00      1 F:z3            1
                        (     109.271 eV)
    21      21       --         4.016 au  C             1.00      1 F:z             1
                        (     109.271 eV)
    22      22       --         4.016 au  C             1.00      1 F:xyz           1
                        (     109.271 eV)
    23      23       --         4.016 au  C             1.00      1 F:z2x           1
                        (     109.271 eV)
    24      24       --         4.016 au  C             1.00      1 F:z2y           1
                        (     109.271 eV)
    25      25       --         4.016 au  C             1.00      1 F:x             1
                        (     109.271 eV)
    26      26       --         4.016 au  C             1.00      1 F:y             1
                        (     109.271 eV)
    27      27      2.000     -10.066 au  C             1.00      1 S               2
                        (    -273.921 eV)
    28      28      2.000      -0.501 au  C             1.00      2 S               2
                        (     -13.620 eV)
    29      29       --         0.373 au  C             1.00      3 S               2
                        (      10.158 eV)
    30      30       --         5.405 au  C             1.00      4 S               2
                        (     147.073 eV)
    31      31       --        49.848 au  C             1.00      5 S               2
                        (    1356.422 eV)
    32      32      0.667      -0.193 au  C             1.00      1 P:x             2
                        (      -5.239 eV)
    33      33       --         0.169 au  C             1.00      2 P:x             2
                        (       4.589 eV)
    34      34       --         2.013 au  C             1.00      3 P:x             2
                        (      54.789 eV)
    35      35      0.667      -0.193 au  C             1.00      1 P:y             2
                        (      -5.239 eV)
    36      36       --         0.169 au  C             1.00      2 P:y             2
                        (       4.589 eV)
    37      37       --         2.013 au  C             1.00      3 P:y             2
                        (      54.789 eV)
    38      38      0.667      -0.193 au  C             1.00      1 P:z             2
                        (      -5.239 eV)
    39      39       --         0.169 au  C             1.00      2 P:z             2
                        (       4.589 eV)
    40      40       --         2.013 au  C             1.00      3 P:z             2
                        (      54.789 eV)
    41      41       --         1.243 au  C             1.00      1 D:z2            2
                        (      33.824 eV)
    42      42       --         1.243 au  C             1.00      1 D:x2-y2         2
                        (      33.824 eV)
    43      43       --         1.243 au  C             1.00      1 D:xy            2
                        (      33.824 eV)
    44      44       --         1.243 au  C             1.00      1 D:xz            2
                        (      33.824 eV)
    45      45       --         1.243 au  C             1.00      1 D:yz            2
                        (      33.824 eV)
    46      46       --         4.016 au  C             1.00      1 F:z3            2
                        (     109.271 eV)
    47      47       --         4.016 au  C             1.00      1 F:z             2
                        (     109.271 eV)
    48      48       --         4.016 au  C             1.00      1 F:xyz           2
                        (     109.271 eV)
    49      49       --         4.016 au  C             1.00      1 F:z2x           2
                        (     109.271 eV)
    50      50       --         4.016 au  C             1.00      1 F:z2y           2
                        (     109.271 eV)
    51      51       --         4.016 au  C             1.00      1 F:x             2
                        (     109.271 eV)
    52      52       --         4.016 au  C             1.00      1 F:y             2
                        (     109.271 eV)
    53      53      2.000     -10.066 au  C             1.00      1 S               3
                        (    -273.921 eV)
    54      54      2.000      -0.501 au  C             1.00      2 S               3
                        (     -13.620 eV)
    55      55       --         0.373 au  C             1.00      3 S               3
                        (      10.158 eV)
    56      56       --         5.405 au  C             1.00      4 S               3
                        (     147.073 eV)
    57      57       --        49.848 au  C             1.00      5 S               3
                        (    1356.422 eV)
    58      58      0.667      -0.193 au  C             1.00      1 P:x             3
                        (      -5.239 eV)
    59      59       --         0.169 au  C             1.00      2 P:x             3
                        (       4.589 eV)
    60      60       --         2.013 au  C             1.00      3 P:x             3
                        (      54.789 eV)
    61      61      0.667      -0.193 au  C             1.00      1 P:y             3
                        (      -5.239 eV)
    62      62       --         0.169 au  C             1.00      2 P:y             3
                        (       4.589 eV)
    63      63       --         2.013 au  C             1.00      3 P:y             3
                        (      54.789 eV)
    64      64      0.667      -0.193 au  C             1.00      1 P:z             3
                        (      -5.239 eV)
    65      65       --         0.169 au  C             1.00      2 P:z             3
                        (       4.589 eV)
    66      66       --         2.013 au  C             1.00      3 P:z             3
                        (      54.789 eV)
    67      67       --         1.243 au  C             1.00      1 D:z2            3
                        (      33.824 eV)
    68      68       --         1.243 au  C             1.00      1 D:x2-y2         3
                        (      33.824 eV)
    69      69       --         1.243 au  C             1.00      1 D:xy            3
                        (      33.824 eV)
    70      70       --         1.243 au  C             1.00      1 D:xz            3
                        (      33.824 eV)
    71      71       --         1.243 au  C             1.00      1 D:yz            3
                        (      33.824 eV)
    72      72       --         4.016 au  C             1.00      1 F:z3            3
                        (     109.271 eV)
    73      73       --         4.016 au  C             1.00      1 F:z             3
                        (     109.271 eV)
    74      74       --         4.016 au  C             1.00      1 F:xyz           3
                        (     109.271 eV)
    75      75       --         4.016 au  C             1.00      1 F:z2x           3
                        (     109.271 eV)
    76      76       --         4.016 au  C             1.00      1 F:z2y           3
                        (     109.271 eV)
    77      77       --         4.016 au  C             1.00      1 F:x             3
                        (     109.271 eV)
    78      78       --         4.016 au  C             1.00      1 F:y             3
                        (     109.271 eV)
    79      79      1.000      -0.240 au  H             1.00      1 S               4
                        (      -6.532 eV)
    80      80       --         0.088 au  H             1.00      2 S               4
                        (       2.394 eV)
    81      81       --         1.502 au  H             1.00      3 S               4
                        (      40.869 eV)
    82      82       --         0.406 au  H             1.00      1 P:x             4
                        (      11.051 eV)
    83      83       --         0.406 au  H             1.00      1 P:y             4
                        (      11.051 eV)
    84      84       --         0.406 au  H             1.00      1 P:z             4
                        (      11.051 eV)
    85      85       --         2.569 au  H             1.00      1 D:z2            4
                        (      69.917 eV)
    86      86       --         2.569 au  H             1.00      1 D:x2-y2         4
                        (      69.917 eV)
    87      87       --         2.569 au  H             1.00      1 D:xy            4
                        (      69.917 eV)
    88      88       --         2.569 au  H             1.00      1 D:xz            4
                        (      69.917 eV)
    89      89       --         2.569 au  H             1.00      1 D:yz            4
                        (      69.917 eV)
    90      90      1.000      -0.240 au  H             1.00      1 S               5
                        (      -6.532 eV)
    91      91       --         0.088 au  H             1.00      2 S               5
                        (       2.394 eV)
    92      92       --         1.502 au  H             1.00      3 S               5
                        (      40.869 eV)
    93      93       --         0.406 au  H             1.00      1 P:x             5
                        (      11.051 eV)
    94      94       --         0.406 au  H             1.00      1 P:y             5
                        (      11.051 eV)
    95      95       --         0.406 au  H             1.00      1 P:z             5
                        (      11.051 eV)
    96      96       --         2.569 au  H             1.00      1 D:z2            5
                        (      69.917 eV)
    97      97       --         2.569 au  H             1.00      1 D:x2-y2         5
                        (      69.917 eV)
    98      98       --         2.569 au  H             1.00      1 D:xy            5
                        (      69.917 eV)
    99      99       --         2.569 au  H             1.00      1 D:xz            5
                        (      69.917 eV)
   100     100       --         2.569 au  H             1.00      1 D:yz            5
                        (      69.917 eV)
   101     101      1.000      -0.240 au  H             1.00      1 S               6
                        (      -6.532 eV)
   102     102       --         0.088 au  H             1.00      2 S               6
                        (       2.394 eV)
   103     103       --         1.502 au  H             1.00      3 S               6
                        (      40.869 eV)
   104     104       --         0.406 au  H             1.00      1 P:x             6
                        (      11.051 eV)
   105     105       --         0.406 au  H             1.00      1 P:y             6
                        (      11.051 eV)
   106     106       --         0.406 au  H             1.00      1 P:z             6
                        (      11.051 eV)
   107     107       --         2.569 au  H             1.00      1 D:z2            6
                        (      69.917 eV)
   108     108       --         2.569 au  H             1.00      1 D:x2-y2         6
                        (      69.917 eV)
   109     109       --         2.569 au  H             1.00      1 D:xy            6
                        (      69.917 eV)
   110     110       --         2.569 au  H             1.00      1 D:xz            6
                        (      69.917 eV)
   111     111       --         2.569 au  H             1.00      1 D:yz            6
                        (      69.917 eV)
   112     112      1.000      -0.240 au  H             1.00      1 S               7
                        (      -6.532 eV)
   113     113       --         0.088 au  H             1.00      2 S               7
                        (       2.394 eV)
   114     114       --         1.502 au  H             1.00      3 S               7
                        (      40.869 eV)
   115     115       --         0.406 au  H             1.00      1 P:x             7
                        (      11.051 eV)
   116     116       --         0.406 au  H             1.00      1 P:y             7
                        (      11.051 eV)
   117     117       --         0.406 au  H             1.00      1 P:z             7
                        (      11.051 eV)
   118     118       --         2.569 au  H             1.00      1 D:z2            7
                        (      69.917 eV)
   119     119       --         2.569 au  H             1.00      1 D:x2-y2         7
                        (      69.917 eV)
   120     120       --         2.569 au  H             1.00      1 D:xy            7
                        (      69.917 eV)
   121     121       --         2.569 au  H             1.00      1 D:xz            7
                        (      69.917 eV)
   122     122       --         2.569 au  H             1.00      1 D:yz            7
                        (      69.917 eV)
   123     123      1.000      -0.240 au  H             1.00      1 S               8
                        (      -6.532 eV)
   124     124       --         0.088 au  H             1.00      2 S               8
                        (       2.394 eV)
   125     125       --         1.502 au  H             1.00      3 S               8
                        (      40.869 eV)
   126     126       --         0.406 au  H             1.00      1 P:x             8
                        (      11.051 eV)
   127     127       --         0.406 au  H             1.00      1 P:y             8
                        (      11.051 eV)
   128     128       --         0.406 au  H             1.00      1 P:z             8
                        (      11.051 eV)
   129     129       --         2.569 au  H             1.00      1 D:z2            8
                        (      69.917 eV)
   130     130       --         2.569 au  H             1.00      1 D:x2-y2         8
                        (      69.917 eV)
   131     131       --         2.569 au  H             1.00      1 D:xy            8
                        (      69.917 eV)
   132     132       --         2.569 au  H             1.00      1 D:xz            8
                        (      69.917 eV)
   133     133       --         2.569 au  H             1.00      1 D:yz            8
                        (      69.917 eV)
   134     134      2.000    -488.642 au  Br            1.00      1 S               9
                        (  -13296.634 eV)
   135     135      2.000     -63.585 au  Br            1.00      2 S               9
                        (   -1730.246 eV)
   136     136      2.000      -8.709 au  Br            1.00      3 S               9
                        (    -236.987 eV)
   137     137      2.000      -0.733 au  Br            1.00      4 S               9
                        (     -19.946 eV)
   138     138       --         0.224 au  Br            1.00      5 S               9
                        (       6.099 eV)
   139     139       --         2.414 au  Br            1.00      6 S               9
                        (      65.683 eV)
   140     140       --        13.546 au  Br            1.00      7 S               9
                        (     368.609 eV)
   141     141       --       615.209 au  Br            1.00      8 S               9
                        (   16740.684 eV)
   142     142      2.000     -56.116 au  Br            1.00      1 P:x             9
                        (   -1526.987 eV)
   143     143      2.000      -6.365 au  Br            1.00      2 P:x             9
                        (    -173.205 eV)
   144     144      1.667      -0.284 au  Br            1.00      3 P:x             9
                        (      -7.716 eV)
   145     145       --         0.137 au  Br            1.00      4 P:x             9
                        (       3.720 eV)
   146     146       --         1.208 au  Br            1.00      5 P:x             9
                        (      32.874 eV)
   147     147       --         8.734 au  Br            1.00      6 P:x             9
                        (     237.661 eV)
   148     148       --        95.627 au  Br            1.00      7 P:x             9
                        (    2602.141 eV)
   149     149      2.000     -56.116 au  Br            1.00      1 P:y             9
                        (   -1526.987 eV)
   150     150      2.000      -6.365 au  Br            1.00      2 P:y             9
                        (    -173.205 eV)
   151     151      1.667      -0.284 au  Br            1.00      3 P:y             9
                        (      -7.716 eV)
   152     152       --         0.137 au  Br            1.00      4 P:y             9
                        (       3.720 eV)
   153     153       --         1.208 au  Br            1.00      5 P:y             9
                        (      32.874 eV)
   154     154       --         8.734 au  Br            1.00      6 P:y             9
                        (     237.661 eV)
   155     155       --        95.627 au  Br            1.00      7 P:y             9
                        (    2602.141 eV)
   156     156      2.000     -56.116 au  Br            1.00      1 P:z             9
                        (   -1526.987 eV)
   157     157      2.000      -6.365 au  Br            1.00      2 P:z             9
                        (    -173.205 eV)
   158     158      1.667      -0.284 au  Br            1.00      3 P:z             9
                        (      -7.716 eV)
   159     159       --         0.137 au  Br            1.00      4 P:z             9
                        (       3.720 eV)
   160     160       --         1.208 au  Br            1.00      5 P:z             9
                        (      32.874 eV)
   161     161       --         8.734 au  Br            1.00      6 P:z             9
                        (     237.661 eV)
   162     162       --        95.627 au  Br            1.00      7 P:z             9
                        (    2602.141 eV)
   163     163      2.000      -2.452 au  Br            1.00      1 D:z2            9
                        (     -66.719 eV)
   164     164       --         0.270 au  Br            1.00      2 D:z2            9
                        (       7.341 eV)
   165     165       --         2.706 au  Br            1.00      3 D:z2            9
                        (      73.633 eV)
   166     166       --        20.525 au  Br            1.00      4 D:z2            9
                        (     558.519 eV)
   167     167      2.000      -2.452 au  Br            1.00      1 D:x2-y2         9
                        (     -66.719 eV)
   168     168       --         0.270 au  Br            1.00      2 D:x2-y2         9
                        (       7.341 eV)
   169     169       --         2.706 au  Br            1.00      3 D:x2-y2         9
                        (      73.633 eV)
   170     170       --        20.525 au  Br            1.00      4 D:x2-y2         9
                        (     558.519 eV)
   171     171      2.000      -2.452 au  Br            1.00      1 D:xy            9
                        (     -66.719 eV)
   172     172       --         0.270 au  Br            1.00      2 D:xy            9
                        (       7.341 eV)
   173     173       --         2.706 au  Br            1.00      3 D:xy            9
                        (      73.633 eV)
   174     174       --        20.525 au  Br            1.00      4 D:xy            9
                        (     558.519 eV)
   175     175      2.000      -2.452 au  Br            1.00      1 D:xz            9
                        (     -66.719 eV)
   176     176       --         0.270 au  Br            1.00      2 D:xz            9
                        (       7.341 eV)
   177     177       --         2.706 au  Br            1.00      3 D:xz            9
                        (      73.633 eV)
   178     178       --        20.525 au  Br            1.00      4 D:xz            9
                        (     558.519 eV)
   179     179      2.000      -2.452 au  Br            1.00      1 D:yz            9
                        (     -66.719 eV)
   180     180       --         0.270 au  Br            1.00      2 D:yz            9
                        (       7.341 eV)
   181     181       --         2.706 au  Br            1.00      3 D:yz            9
                        (      73.633 eV)
   182     182       --        20.525 au  Br            1.00      4 D:yz            9
                        (     558.519 eV)
   183     183       --         0.857 au  Br            1.00      1 F:z3            9
                        (      23.313 eV)
   184     184       --         0.857 au  Br            1.00      1 F:z             9
                        (      23.313 eV)
   185     185       --         0.857 au  Br            1.00      1 F:xyz           9
                        (      23.313 eV)
   186     186       --         0.857 au  Br            1.00      1 F:z2x           9
                        (      23.313 eV)
   187     187       --         0.857 au  Br            1.00      1 F:z2y           9
                        (      23.313 eV)
   188     188       --         0.857 au  Br            1.00      1 F:x             9
                        (      23.313 eV)
   189     189       --         0.857 au  Br            1.00      1 F:y             9
                        (      23.313 eV)
   190     190      2.000     -14.160 au  N             1.00      1 S              10
                        (    -385.319 eV)
   191     191      2.000      -0.678 au  N             1.00      2 S              10
                        (     -18.450 eV)
   192     192       --         0.517 au  N             1.00      3 S              10
                        (      14.073 eV)
   193     193       --         6.872 au  N             1.00      4 S              10
                        (     186.990 eV)
   194     194       --        63.432 au  N             1.00      5 S              10
                        (    1726.082 eV)
   195     195      1.000      -0.260 au  N             1.00      1 P:x            10
                        (      -7.062 eV)
   196     196       --         0.281 au  N             1.00      2 P:x            10
                        (       7.649 eV)
   197     197       --         3.275 au  N             1.00      3 P:x            10
                        (      89.105 eV)
   198     198      1.000      -0.260 au  N             1.00      1 P:y            10
                        (      -7.062 eV)
   199     199       --         0.281 au  N             1.00      2 P:y            10
                        (       7.649 eV)
   200     200       --         3.275 au  N             1.00      3 P:y            10
                        (      89.105 eV)
   201     201      1.000      -0.260 au  N             1.00      1 P:z            10
                        (      -7.062 eV)
   202     202       --         0.281 au  N             1.00      2 P:z            10
                        (       7.649 eV)
   203     203       --         3.275 au  N             1.00      3 P:z            10
                        (      89.105 eV)
   204     204       --         1.250 au  N             1.00      1 D:z2           10
                        (      34.005 eV)
   205     205       --         1.250 au  N             1.00      1 D:x2-y2        10
                        (      34.005 eV)
   206     206       --         1.250 au  N             1.00      1 D:xy           10
                        (      34.005 eV)
   207     207       --         1.250 au  N             1.00      1 D:xz           10
                        (      34.005 eV)
   208     208       --         1.250 au  N             1.00      1 D:yz           10
                        (      34.005 eV)
   209     209       --         4.013 au  N             1.00      1 F:z3           10
                        (     109.190 eV)
   210     210       --         4.013 au  N             1.00      1 F:z            10
                        (     109.190 eV)
   211     211       --         4.013 au  N             1.00      1 F:xyz          10
                        (     109.190 eV)
   212     212       --         4.013 au  N             1.00      1 F:z2x          10
                        (     109.190 eV)
   213     213       --         4.013 au  N             1.00      1 F:z2y          10
                        (     109.190 eV)
   214     214       --         4.013 au  N             1.00      1 F:x            10
                        (     109.190 eV)
   215     215       --         4.013 au  N             1.00      1 F:y            10
                        (     109.190 eV)
   216     216      2.000     -14.160 au  N             1.00      1 S              11
                        (    -385.319 eV)
   217     217      2.000      -0.678 au  N             1.00      2 S              11
                        (     -18.450 eV)
   218     218       --         0.517 au  N             1.00      3 S              11
                        (      14.073 eV)
   219     219       --         6.872 au  N             1.00      4 S              11
                        (     186.990 eV)
   220     220       --        63.432 au  N             1.00      5 S              11
                        (    1726.082 eV)
   221     221      1.000      -0.260 au  N             1.00      1 P:x            11
                        (      -7.062 eV)
   222     222       --         0.281 au  N             1.00      2 P:x            11
                        (       7.649 eV)
   223     223       --         3.275 au  N             1.00      3 P:x            11
                        (      89.105 eV)
   224     224      1.000      -0.260 au  N             1.00      1 P:y            11
                        (      -7.062 eV)
   225     225       --         0.281 au  N             1.00      2 P:y            11
                        (       7.649 eV)
   226     226       --         3.275 au  N             1.00      3 P:y            11
                        (      89.105 eV)
   227     227      1.000      -0.260 au  N             1.00      1 P:z            11
                        (      -7.062 eV)
   228     228       --         0.281 au  N             1.00      2 P:z            11
                        (       7.649 eV)
   229     229       --         3.275 au  N             1.00      3 P:z            11
                        (      89.105 eV)
   230     230       --         1.250 au  N             1.00      1 D:z2           11
                        (      34.005 eV)
   231     231       --         1.250 au  N             1.00      1 D:x2-y2        11
                        (      34.005 eV)
   232     232       --         1.250 au  N             1.00      1 D:xy           11
                        (      34.005 eV)
   233     233       --         1.250 au  N             1.00      1 D:xz           11
                        (      34.005 eV)
   234     234       --         1.250 au  N             1.00      1 D:yz           11
                        (      34.005 eV)
   235     235       --         4.013 au  N             1.00      1 F:z3           11
                        (     109.190 eV)
   236     236       --         4.013 au  N             1.00      1 F:z            11
                        (     109.190 eV)
   237     237       --         4.013 au  N             1.00      1 F:xyz          11
                        (     109.190 eV)
   238     238       --         4.013 au  N             1.00      1 F:z2x          11
                        (     109.190 eV)
   239     239       --         4.013 au  N             1.00      1 F:z2y          11
                        (     109.190 eV)
   240     240       --         4.013 au  N             1.00      1 F:x            11
                        (     109.190 eV)
   241     241       --         4.013 au  N             1.00      1 F:y            11
                        (     109.190 eV)



 ================================
 (Slater-type)  F U N C T I O N S  ***  (Basis and Fit)  ***
 ================================
  

 Atom Type    1  (C)
 ==============

 Valence Basis Sets:  10
 -----------------------
   1 S    7.680000
   1 S    5.000000
   2 S    1.280000
   2 S    2.100000
   2 S    4.600000
   2 P    0.820000
   2 P    1.480000
   2 P    2.940000
   3 D    2.200000
   4 F    3.300000

 Atom Type    2  (H)
 ==============

 Valence Basis Sets:   5
 -----------------------
   1 S    0.690000
   1 S    0.920000
   1 S    1.580000
   2 P    1.250000
   3 D    2.500000

 Atom Type    3  (Br)
 ==============

 Valence Basis Sets:  20
 -----------------------
   1 S   41.300000
   1 S   32.800000
   2 S   13.900000
   2 P   19.450000
   2 P   13.100000
   3 S    7.200000
   3 S    4.950000
   3 P    7.900000
   3 P    5.050000
   3 D   10.900000
   3 D    6.050000
   3 D    3.500000
   4 S    4.500000
   4 S    2.800000
   4 S    1.800000
   4 P    3.250000
   4 P    1.950000
   4 P    1.200000
   4 D    1.800000
   4 F    1.800000

 Atom Type    4  (N)
 ==============

 Valence Basis Sets:  10
 -----------------------
   1 S    8.740000
   1 S    5.900000
   2 S    5.150000
   2 S    2.500000
   2 S    1.500000
   2 P    3.680000
   2 P    1.880000
   2 P    1.000000
   3 D    2.200000
   4 F    3.300000


 BAS: List of all Elementary Cartesian Basis Functions
 =====================================================

 The numbering in the list below (to the right of the function characteristics) is referred
 to in print-outs of MO eigenvectors and Mulliken populations in the BAS representation
 (as contrasted to the SFO representation).

 Notes:
 1. The functions are characterized by a polynomial prefactor (powers of x,y,z and r) and
    an exponential decay factor alpha.
 2. Since the basis sets are specific for an atom TYPE, the individual functions occur on
    all atoms of that type.
 3. The word 'Core' in the left margin signals that it is a Core Function (CF) : not a
    degree of freedom in the valence set, but only used to ensure orthogonalization of
    the other valence basis functions on the frozen Core Orbitals.


 (power of) X  Y  Z  R     Alpha  on Atom
            ==========     =====     ==========

 C                                    1    2    3
                                  ---------------------------------------------------------------------------
            0  0  0  0     7.680      1   31   61
            0  0  0  0     5.000      2   32   62
            0  0  0  1     1.280      3   33   63
            0  0  0  1     2.100      4   34   64
            0  0  0  1     4.600      5   35   65
            1  0  0  0     0.820      6   36   66
            0  1  0  0     0.820      7   37   67
            0  0  1  0     0.820      8   38   68
            1  0  0  0     1.480      9   39   69
            0  1  0  0     1.480     10   40   70
            0  0  1  0     1.480     11   41   71
            1  0  0  0     2.940     12   42   72
            0  1  0  0     2.940     13   43   73
            0  0  1  0     2.940     14   44   74
            2  0  0  0     2.200     15   45   75
            1  1  0  0     2.200     16   46   76
            1  0  1  0     2.200     17   47   77
            0  2  0  0     2.200     18   48   78
            0  1  1  0     2.200     19   49   79
            0  0  2  0     2.200     20   50   80
            3  0  0  0     3.300     21   51   81
            2  1  0  0     3.300     22   52   82
            2  0  1  0     3.300     23   53   83
            1  2  0  0     3.300     24   54   84
            1  1  1  0     3.300     25   55   85
            1  0  2  0     3.300     26   56   86
            0  3  0  0     3.300     27   57   87
            0  2  1  0     3.300     28   58   88
            0  1  2  0     3.300     29   59   89
            0  0  3  0     3.300     30   60   90

 H                                    4    5    6    7    8
                                  ---------------------------------------------------------------------------
            0  0  0  0     0.690     91  103  115  127  139
            0  0  0  0     0.920     92  104  116  128  140
            0  0  0  0     1.580     93  105  117  129  141
            1  0  0  0     1.250     94  106  118  130  142
            0  1  0  0     1.250     95  107  119  131  143
            0  0  1  0     1.250     96  108  120  132  144
            2  0  0  0     2.500     97  109  121  133  145
            1  1  0  0     2.500     98  110  122  134  146
            1  0  1  0     2.500     99  111  123  135  147
            0  2  0  0     2.500    100  112  124  136  148
            0  1  1  0     2.500    101  113  125  137  149
            0  0  2  0     2.500    102  114  126  138  150

 Br                                   9
                                  ---------------------------------------------------------------------------
            0  0  0  0    41.300    151
            0  0  0  0    32.800    152
            0  0  0  1    13.900    153
            1  0  0  0    19.450    154
            0  1  0  0    19.450    155
            0  0  1  0    19.450    156
            1  0  0  0    13.100    157
            0  1  0  0    13.100    158
            0  0  1  0    13.100    159
            0  0  0  2     7.200    160
            0  0  0  2     4.950    161
            1  0  0  1     7.900    162
            0  1  0  1     7.900    163
            0  0  1  1     7.900    164
            1  0  0  1     5.050    165
            0  1  0  1     5.050    166
            0  0  1  1     5.050    167
            2  0  0  0    10.900    168
            1  1  0  0    10.900    169
            1  0  1  0    10.900    170
            0  2  0  0    10.900    171
            0  1  1  0    10.900    172
            0  0  2  0    10.900    173
            2  0  0  0     6.050    174
            1  1  0  0     6.050    175
            1  0  1  0     6.050    176
            0  2  0  0     6.050    177
            0  1  1  0     6.050    178
            0  0  2  0     6.050    179
            2  0  0  0     3.500    180
            1  1  0  0     3.500    181
            1  0  1  0     3.500    182
            0  2  0  0     3.500    183
            0  1  1  0     3.500    184
            0  0  2  0     3.500    185
            0  0  0  3     4.500    186
            0  0  0  3     2.800    187
            0  0  0  3     1.800    188
            1  0  0  2     3.250    189
            0  1  0  2     3.250    190
            0  0  1  2     3.250    191
            1  0  0  2     1.950    192
            0  1  0  2     1.950    193
            0  0  1  2     1.950    194
            1  0  0  2     1.200    195
            0  1  0  2     1.200    196
            0  0  1  2     1.200    197
            2  0  0  1     1.800    198
            1  1  0  1     1.800    199
            1  0  1  1     1.800    200
            0  2  0  1     1.800    201
            0  1  1  1     1.800    202
            0  0  2  1     1.800    203
            3  0  0  0     1.800    204
            2  1  0  0     1.800    205
            2  0  1  0     1.800    206
            1  2  0  0     1.800    207
            1  1  1  0     1.800    208
            1  0  2  0     1.800    209
            0  3  0  0     1.800    210
            0  2  1  0     1.800    211
            0  1  2  0     1.800    212
            0  0  3  0     1.800    213

 N                                   10   11
                                  ---------------------------------------------------------------------------
            0  0  0  0     8.740    214  244
            0  0  0  0     5.900    215  245
            0  0  0  1     5.150    216  246
            0  0  0  1     2.500    217  247
            0  0  0  1     1.500    218  248
            1  0  0  0     3.680    219  249
            0  1  0  0     3.680    220  250
            0  0  1  0     3.680    221  251
            1  0  0  0     1.880    222  252
            0  1  0  0     1.880    223  253
            0  0  1  0     1.880    224  254
            1  0  0  0     1.000    225  255
            0  1  0  0     1.000    226  256
            0  0  1  0     1.000    227  257
            2  0  0  0     2.200    228  258
            1  1  0  0     2.200    229  259
            1  0  1  0     2.200    230  260
            0  2  0  0     2.200    231  261
            0  1  1  0     2.200    232  262
            0  0  2  0     2.200    233  263
            3  0  0  0     3.300    234  264
            2  1  0  0     3.300    235  265
            2  0  1  0     3.300    236  266
            1  2  0  0     3.300    237  267
            1  1  1  0     3.300    238  268
            1  0  2  0     3.300    239  269
            0  3  0  0     3.300    240  270
            0  2  1  0     3.300    241  271
            0  1  2  0     3.300    242  272
            0  0  3  0     3.300    243  273

 Total number of charge fitting functions (nprimf)       840
 Total number of Cartesian basis functions (naos)        273
 Total number of Cartesian core functions  (ncos)          0

 ***************************************************************************************************



                                              ***********************
                                              *  T E C H N I C A L  *
                                              ***********************
  



 =============================================================
 P A R A L L E L I Z A T I O N  and  V E C T O R I Z A T I O N
 =============================================================
  
 Nr of parallel processes:                                1
 Maximum vector length in NumInt loops:                 128



 =====================
 S C F   U P D A T E S
 =====================
  
 Max. nr. of cycles:                               200
 Convergence criterion:                              0.0000010000
   secondary criterion:                              0.0010000000

 Mix parameter (when DIIS does not apply):           0.2000000000
 Mixed ADIIS+SDIIS will be used                  
    Max number of expansion vectors:                10
    Pure ADIIS when Max([F,P]) is above              0.1000000000
    Pure SDIIS when Max([F,P]) is below              0.0010000000
 Automatic ElectronSmearing (in case of problematic SCF convergence) disabled



 =================
 P R E C I S I O N  ***  (General: NumInt, NeglectFunctionTails, ...)  ***
 =================
  

 NumInt:           Target precision:                 4.0000000000
 -------           Initial precision:                4.0000000000
                   Min. precision (optimization):    4.0000000000

 Neglect Functions:          Basis functions:        0.1000000000E-05
 ------------------          Fit functions:          0.1000000000E-05



 ===========================
 L I N E A R   S C A L I N G
 ===========================
  

 Cut-off radii density fit:                        0.1000000000E-07
 Overlap cut-off criterion AO matrix elements:     0.1000000000E-05
 Cut-offs for Coulomb potential and fitted density:0.1000000000E-07
 Cut-off criterion for Coulomb multipole terms:    0.1000000000E-07
 Progressive Convergence parameter:                 0.000000000    
 ***************************************************************************************************



                                            ***************************
                                            *  C O M P U T A T I O N  *
                                            ***************************
  

 Number of elements of the density matrix on this node (used, total):     37401     37401



 ===========================================
 Numerical Integration : Fuzzy Cells (Becke)
 ===========================================
  
 Becke grid quality: NORMAL         
  
 Lebedev angular grid order:             min:  11 max:  23
 Nr. of radial points:                   min:  46 max:  77

 Total nr. of points:      75514
 Nr. of blocks:              590
 Block length:               128
 Nr. of dummy points:          6


 Test of Precision of the Numerical Integration Grid
 ===================================================

 Integral of the Total Core Density:                   0.00000000000000



 ========================
 Density Fitting (zlmFit)
 ========================
  
 ZlmFit Fit Quality: NORMAL         
  
 Max L-expansion:                        min:   6 max:   7
 Nr. of radial interpolation points:     min:  39 max:  72



 =====
 S C F  ***  ScaSCF  ***
 =====
  
 Initial density matrix is calculated as sum of fragments

 CYCLE    1
 SCF Error: norm([F,P])=      5.549128911442, max([F,P])=      1.434327424157
 orbitals (Q,E):
 ---------------
 A :27...46          ( 2.00    -0.5736)  ( 2.00    -0.5382)  ( 2.00    -0.5215)  ( 2.00    -0.4890)
                     ( 2.00    -0.4533)  ( 2.00    -0.4444)  ( 2.00    -0.4083)  ( 2.00    -0.3734)
                     ( 2.00    -0.2960)  ( 2.00    -0.2934)  ( 0.00    -0.1888)  ( 0.00    -0.1545)
                     ( 0.00    -0.1442)  ( 0.00    -0.0669)  ( 0.00    -0.0282)  ( 0.00    -0.0220)
                     ( 0.00    -0.0153)  ( 0.00    -0.0012)  ( 0.00     0.0206)  ( 0.00     0.0379)

 CYCLE    2
   MIX coefficients:  0.8000  0.2000
 SCF Error: norm([F,P])=      1.079076306922, max([F,P])=      0.260584452394
 orbitals (Q,E):
 ---------------
 A :27...37          ( 2.00    -0.5177)  ( 2.00    -0.4863)  ( 2.00    -0.4674)  ( 2.00    -0.4182)
                     ( 2.00    -0.3958)  ( 2.00    -0.3866)  ( 2.00    -0.3517)  ( 2.00    -0.3323)
                     ( 2.00    -0.2942)  ( 2.00    -0.2918)  ( 0.00    -0.1621)

 CYCLE    3
  SDIIS (wt  0.000): -0.4661  1.4661
 A-DIIS (wt  1.000):  0.0000  1.0000
  DIIS coefficients:  0.0000  1.0000
 SCF Error: norm([F,P])=      0.479466299510, max([F,P])=      0.120282962937
 orbitals (Q,E):
 ---------------
 A :27...37          ( 2.00    -0.3895)  ( 2.00    -0.3532)  ( 2.00    -0.3327)  ( 2.00    -0.2879)
                     ( 2.00    -0.2574)  ( 2.00    -0.2474)  ( 2.00    -0.2408)  ( 2.00    -0.2342)
                     ( 2.00    -0.2283)  ( 2.00    -0.1554)  ( 0.00    -0.0867)

 CYCLE    4
  SDIIS (wt  0.000):  0.1378  0.4141  0.4480
 A-DIIS (wt  1.000): -0.0000  0.6740  0.3260
  DIIS coefficients: -0.0000  0.6740  0.3260
 SCF Error: norm([F,P])=      0.747045970847, max([F,P])=      0.231428296644
 orbitals (Q,E):
 ---------------
 A :27...37          ( 2.00    -0.4381)  ( 2.00    -0.4125)  ( 2.00    -0.3904)  ( 2.00    -0.3150)
                     ( 2.00    -0.3077)  ( 2.00    -0.2956)  ( 2.00    -0.2866)  ( 2.00    -0.2450)
                     ( 2.00    -0.2378)  ( 2.00    -0.2356)  ( 0.00    -0.1122)

 CYCLE    5
  SDIIS (wt  0.753): -0.0783  0.3770  0.0782  0.6231
 A-DIIS (wt  0.247):  0.0000  0.0000  0.0000  1.0000
  DIIS coefficients: -0.0590  0.2840  0.0590  0.7160
 SCF Error: norm([F,P])=      0.134833865550, max([F,P])=      0.025407851119
 orbitals (Q,E):
 ---------------
 A :27...37          ( 2.00    -0.4473)  ( 2.00    -0.4191)  ( 2.00    -0.3977)  ( 2.00    -0.3348)
                     ( 2.00    -0.3256)  ( 2.00    -0.3169)  ( 2.00    -0.3076)  ( 2.00    -0.2596)
                     ( 2.00    -0.2542)  ( 2.00    -0.2474)  ( 0.00    -0.1219)

 CYCLE    6
  SDIIS (wt  0.753): -0.0040  0.1049  0.0276  0.4092  0.4623
 A-DIIS (wt  0.247):  0.0000  0.0000  0.0000  0.2599  0.7401
  DIIS coefficients: -0.0030  0.0791  0.0208  0.3724  0.5308
 SCF Error: norm([F,P])=      0.082905629128, max([F,P])=      0.025849956330
 orbitals (Q,E):
 ---------------
 A :27...37          ( 2.00    -0.4487)  ( 2.00    -0.4216)  ( 2.00    -0.3994)  ( 2.00    -0.3293)
                     ( 2.00    -0.3203)  ( 2.00    -0.3111)  ( 2.00    -0.3022)  ( 2.00    -0.2550)
                     ( 2.00    -0.2483)  ( 2.00    -0.2468)  ( 0.00    -0.1212)

 CYCLE    7
  SDIIS (wt  0.883):  0.0009  0.0415  0.0130  0.2226  0.3551  0.3668
 A-DIIS (wt  0.117):  0.0000  0.0000  0.0000  0.0000  0.1109  0.8891
  DIIS coefficients:  0.0008  0.0367  0.0115  0.1966  0.3266  0.4279
 SCF Error: norm([F,P])=      0.028464913872, max([F,P])=      0.012585787716
 orbitals (Q,E):
 ---------------
 A :27...37          ( 2.00    -0.4464)  ( 2.00    -0.4192)  ( 2.00    -0.3973)  ( 2.00    -0.3301)
                     ( 2.00    -0.3201)  ( 2.00    -0.3111)  ( 2.00    -0.3021)  ( 2.00    -0.2556)
                     ( 2.00    -0.2495)  ( 2.00    -0.2468)  ( 0.00    -0.1197)

 CYCLE    8
  SDIIS (wt  0.940): -0.0027  0.0172  0.0025  0.0917  0.1738  0.3752  0.3423
 A-DIIS (wt  0.060):  0.0000  0.0000  0.0000  0.0000  0.0000  0.3452  0.6548
  DIIS coefficients: -0.0026  0.0162  0.0024  0.0863  0.1635  0.3734  0.3609
 SCF Error: norm([F,P])=      0.016989893639, max([F,P])=      0.006891076205
 orbitals (Q,E):
 ---------------
 A :27...37          ( 2.00    -0.4472)  ( 2.00    -0.4201)  ( 2.00    -0.3981)  ( 2.00    -0.3298)
                     ( 2.00    -0.3203)  ( 2.00    -0.3112)  ( 2.00    -0.3023)  ( 2.00    -0.2553)
                     ( 2.00    -0.2490)  ( 2.00    -0.2468)  ( 0.00    -0.1203)

 CYCLE    9
  SDIIS (wt  1.000): -0.0008  0.0046  0.0005  0.0265  0.0535  0.1439  0.1816  0.5901
  DIIS coefficients: -0.0008  0.0046  0.0005  0.0265  0.0535  0.1439  0.1816  0.5901
 SCF Error: norm([F,P])=      0.001702449973, max([F,P])=      0.000431250671
 orbitals (Q,E):
 ---------------
 A :27...37          ( 2.00    -0.4471)  ( 2.00    -0.4200)  ( 2.00    -0.3980)  ( 2.00    -0.3299)
                     ( 2.00    -0.3202)  ( 2.00    -0.3112)  ( 2.00    -0.3023)  ( 2.00    -0.2553)
                     ( 2.00    -0.2490)  ( 2.00    -0.2468)  ( 0.00    -0.1202)

 CYCLE   10
  SDIIS (wt  1.000): -0.0002  0.0007 -0.0001  0.0046  0.0102  0.0322  0.0498  0.2657  0.6371
  DIIS coefficients: -0.0002  0.0007 -0.0001  0.0046  0.0102  0.0322  0.0498  0.2657  0.6371
 SCF Error: norm([F,P])=      0.000299283135, max([F,P])=      0.000087620700
 orbitals (Q,E):
 ---------------
 A :27...37          ( 2.00    -0.4472)  ( 2.00    -0.4200)  ( 2.00    -0.3980)  ( 2.00    -0.3299)
                     ( 2.00    -0.3203)  ( 2.00    -0.3112)  ( 2.00    -0.3023)  ( 2.00    -0.2553)
                     ( 2.00    -0.2490)  ( 2.00    -0.2468)  ( 0.00    -0.1203)

 CYCLE   11
  SDIIS (wt  1.000): -0.0000  0.0001 -0.0000  0.0008  0.0019  0.0076  0.0133  0.0960  0.3187  0.5618
  DIIS coefficients: -0.0000  0.0001 -0.0000  0.0008  0.0019  0.0076  0.0133  0.0960  0.3187  0.5618
 SCF Error: norm([F,P])=      0.000093384940, max([F,P])=      0.000028337965
 orbitals (Q,E):
 ---------------
 A :27...37          ( 2.00    -0.4472)  ( 2.00    -0.4200)  ( 2.00    -0.3980)  ( 2.00    -0.3299)
                     ( 2.00    -0.3203)  ( 2.00    -0.3112)  ( 2.00    -0.3023)  ( 2.00    -0.2553)
                     ( 2.00    -0.2490)  ( 2.00    -0.2468)  ( 0.00    -0.1203)

 CYCLE   12
  SDIIS (wt  1.000):  0.0000 -0.0000  0.0002  0.0005  0.0021  0.0038  0.0298  0.1076  0.2514  0.6046
  DIIS coefficients:  0.0000 -0.0000  0.0002  0.0005  0.0021  0.0038  0.0298  0.1076  0.2514  0.6046
 SCF Error: norm([F,P])=      0.000019329928, max([F,P])=      0.000003922652
 orbitals (Q,E):
 ---------------
 A :27...37          ( 2.00    -0.4472)  ( 2.00    -0.4200)  ( 2.00    -0.3980)  ( 2.00    -0.3299)
                     ( 2.00    -0.3203)  ( 2.00    -0.3112)  ( 2.00    -0.3023)  ( 2.00    -0.2553)
                     ( 2.00    -0.2490)  ( 2.00    -0.2468)  ( 0.00    -0.1203)

 CYCLE   13
  SDIIS (wt  1.000): -0.0000  0.0000  0.0000  0.0003  0.0007  0.0069  0.0291  0.0877  0.2937  0.5815
  DIIS coefficients: -0.0000  0.0000  0.0000  0.0003  0.0007  0.0069  0.0291  0.0877  0.2937  0.5815
 SCF Error: norm([F,P])=      0.000007080930, max([F,P])=      0.000003306018
 orbitals (Q,E):
 ---------------
 A :27...37          ( 2.00    -0.4472)  ( 2.00    -0.4200)  ( 2.00    -0.3980)  ( 2.00    -0.3299)
                     ( 2.00    -0.3203)  ( 2.00    -0.3112)  ( 2.00    -0.3023)  ( 2.00    -0.2553)
                     ( 2.00    -0.2490)  ( 2.00    -0.2468)  ( 0.00    -0.1203)

 CYCLE   14
  SDIIS (wt  1.000): -0.0000 -0.0000 -0.0000  0.0001  0.0005  0.0029  0.0225  0.1238  0.3817  0.4686
  DIIS coefficients: -0.0000 -0.0000 -0.0000  0.0001  0.0005  0.0029  0.0225  0.1238  0.3817  0.4686
 SCF Error: norm([F,P])=      0.000003166686, max([F,P])=      0.000000985735
 orbitals (Q,E):
 ---------------
 A :27...37          ( 2.00    -0.4472)  ( 2.00    -0.4200)  ( 2.00    -0.3980)  ( 2.00    -0.3299)
                     ( 2.00    -0.3203)  ( 2.00    -0.3112)  ( 2.00    -0.3023)  ( 2.00    -0.2553)
                     ( 2.00    -0.2490)  ( 2.00    -0.2468)  ( 0.00    -0.1203)

 SCF CONVERGED

 CYCLE   15
 ***************************************************************************************************



                                                *******************
                                                *  R E S U L T S  *
                                                *******************
  
 *** Using FIT density in Focky
  SDIIS (wt  1.000):  0.0000  0.0000  0.0001  0.0004  0.0018  0.0096  0.0433  0.1351  0.2640  0.5456
  DIIS coefficients:  0.0000  0.0000  0.0001  0.0004  0.0018  0.0096  0.0433  0.1351  0.2640  0.5456
 SCF Error: norm([F,P])=      0.000000926128, max([F,P])=      0.000000295021

 Scaled ZORA Orbital Energies, per Irrep and Spin:
 =================================================
                        Occup              E (au)              E (eV)       Diff (eV) with prev. cycle
                        -----      --------------------        ------       --------------------------
 A
              27        2.000     -0.44716025221845E+00       -12.168               2.74E-07
              28        2.000     -0.42002614814477E+00       -11.429               8.31E-07
              29        2.000     -0.39804418466340E+00       -10.831               2.31E-07
              30        2.000     -0.32988382179913E+00        -8.977               2.30E-06
              31        2.000     -0.32025139115445E+00        -8.714               1.33E-06
              32        2.000     -0.31120914927297E+00        -8.468               1.58E-06
              33        2.000     -0.30227942405365E+00        -8.225               1.18E-06
              34        2.000     -0.25531652397908E+00        -6.948               3.19E-07
              35        2.000     -0.24900520718438E+00        -6.776               6.33E-07
              36        2.000     -0.24678717901587E+00        -6.715              -1.57E-07
              37        0.000     -0.12025597739822E+00        -3.272
              38        0.000     -0.41204978166879E-01        -1.121
              39        0.000     -0.35981204958980E-01        -0.979
              40        0.000     -0.16886868595994E-01        -0.460
              41        0.000      0.52390495583510E-02         0.143
              42        0.000      0.14540376258112E-01         0.396
              43        0.000      0.30731493064133E-01         0.836
              44        0.000      0.52458588655589E-01         1.427
              45        0.000      0.74346748278356E-01         2.023
              46        0.000      0.10175995371429E+00         2.769
  
 HOMO :       36 A                -0.24678717901587E+00
 LUMO :       37 A                -0.12025597739822E+00
  


 All Electron Calculation, thus no Orbital Energies of the Core Orbitals are calculated


 Fit test: (difference of exact and fit density, squared integrated, result summed over spins)
         Sum-of-Fragments:                             0.00000000380205
         Orthogonalized Fragments:                     0.00103347464847
         SCF:                                          0.00112505740090



 ==========================
 Electron Density at Nuclei
 ==========================
  
 The electron density is calculated at points on a small sphere around the center of a nucleus.
 The printed electron density is the average electron density on these points.
 The radius of the sphere is the printed approximate finite nuclear radius.
 Note: ZORA-4 density is used, which includes small component density

         Atom        Nuclear Radius (Angstrom)             Electron Density (a.u.)
         ----        -------------------------             -----------------------
     1)   C                 0.0000320678                              127.26851
     2)   H                 0.0000181514                                0.50924
     3)   Br                0.0000536685                            33512.85490
     4)   C                 0.0000320678                              126.95567
     5)   H                 0.0000181514                                0.51160
     6)   H                 0.0000181514                                0.51219
     7)   C                 0.0000320678                              127.42939
     8)   N                 0.0000333706                              206.96643
     9)   N                 0.0000333706                              206.00729
    10)   H                 0.0000181514                                0.50467
    11)   H                 0.0000181514                                0.49894



 =======================================
 M U L L I K E N   P O P U L A T I O N S
 =======================================
  
 The survey below gives for each atom:
 a) the total charge (Z minus electrons)
 b) the net spin polarization (nr of electrons spin-A minus spin-B)
 c) for each spin the atomic electron valence density (integrated) per L-value.

 Atom              Charge    Spin density          S         P         D         F
 ----              ------    ------------       ------    ------    ------    ------
 1 C               0.5658                       3.0358    2.3518    0.0438    0.0028
 2 H              -0.1176                       1.0387    0.0728    0.0062    0.0000
 3 Br             -0.2814                       7.9958   17.2340   10.0395    0.0121
 4 C               0.3612                       3.0000    2.5306    0.1027    0.0055
 5 H              -0.1420                       1.0538    0.0823    0.0058    0.0000
 6 H              -0.1480                       1.0594    0.0827    0.0058    0.0000
 7 C               0.0782                       3.1046    2.7474    0.0612    0.0086
 8 N              -0.2437                       3.7311    3.4528    0.0554    0.0044
 9 N              -0.0355                       3.3781    3.6111    0.0432    0.0031
 10 H             -0.0367                       0.9125    0.1149    0.0093    0.0000
 11 H             -0.0003                       0.8673    0.1233    0.0097    0.0000

 Populations of individual BAS functions
 ----------------------------------------
 1 C            0.5062  1.4836  0.1501  0.9380 -0.0421  0.0161 -0.1733 -0.2371  0.5537  0.7954
                0.8723  0.1116  0.1949  0.2183 -0.0056  0.0087  0.0033  0.0161  0.0110  0.0104
               -0.0003 -0.0029 -0.0022  0.0014  0.0000 -0.0003  0.0049  0.0023 -0.0007  0.0006
 4 C            0.5068  1.4828  0.1664  0.8809 -0.0368 -0.1072 -0.1365 -0.1100  0.8102  0.8006
                0.7314  0.1954  0.1800  0.1666  0.0094  0.0119  0.0155  0.0199  0.0222  0.0238
               -0.0014 -0.0023 -0.0011  0.0008  0.0007  0.0018  0.0032  0.0009  0.0005  0.0023
 7 C            0.5050  1.4810  0.2998  0.8489 -0.0301  0.0713  0.0759  0.0148  0.6661  0.6699
                0.6907  0.1670  0.1764  0.2153 -0.0079  0.0061  0.0141 -0.0004  0.0136  0.0356
               -0.0046 -0.0015 -0.0029  0.0000  0.0013  0.0062 -0.0027 -0.0012  0.0062  0.0078
 2 H            0.0660  0.6633  0.3094  0.0323  0.0231  0.0174  0.0142  0.0018  0.0017 -0.0047
                0.0002 -0.0070
 5 H            0.1245  0.6006  0.3286  0.0232  0.0228  0.0363 -0.0050  0.0004  0.0011 -0.0022
                0.0017  0.0100
 6 H            0.1222  0.6120  0.3253  0.0239  0.0239  0.0350 -0.0055  0.0004  0.0010 -0.0007
                0.0016  0.0090
 10 H          -0.0204  0.6087  0.3242  0.0322  0.0407  0.0420 -0.0062  0.0031  0.0001  0.0150
                0.0034 -0.0061
 11 H          -0.0792  0.6209  0.3256  0.0454  0.0374  0.0405  0.0148  0.0031  0.0034 -0.0056
                0.0002 -0.0061
 3 Br           0.7968  1.1334  2.0967  0.8030  0.8037  0.8037  1.1708  1.1696  1.1696  1.6449
                0.2370  1.1585  1.1731  1.1736  0.8759  0.8632  0.8624  0.2684  0.4023  0.4023
                0.2684  0.4027  0.2682  0.7643  1.1479  1.1480  0.7661  1.1494  0.7665  0.3033
                0.4498  0.4497  0.2977  0.4479  0.2974  0.4377  1.2495  0.3996  0.4302  0.6417
                0.6530  0.7391  1.0263  1.0343  0.1183  0.2787  0.2855  0.0332  0.0080  0.0071
               -0.0029  0.0021 -0.0083  0.0303  0.0161  0.0162 -0.0104  0.0004 -0.0140 -0.0079
               -0.0006 -0.0052 -0.0127
 8 N            0.5469  1.4319 -0.0255  1.0250  0.7529  0.1582  0.1646  0.1979  0.6977  0.7139
                0.8036  0.2470  0.2409  0.2291  0.0004  0.0059  0.0128  0.0050  0.0132  0.0181
               -0.0038 -0.0015 -0.0028  0.0001  0.0007  0.0044 -0.0018 -0.0010  0.0042  0.0058
 9 N            0.5501  1.4308 -0.0331  0.9934  0.4370  0.1856  0.1812  0.1957  0.8405  0.8393
                0.8387  0.1156  0.0934  0.3211  0.0127  0.0020  0.0062  0.0139  0.0063  0.0021
                0.0034 -0.0015 -0.0005 -0.0012  0.0003 -0.0012  0.0037 -0.0002 -0.0011  0.0014

 Gross Charges per Atom (Z minus electrons)
 ==========================================
             0.5658   -0.1176   -0.2814    0.3612   -0.1420   -0.1480    0.0782   -0.2437   -0.0355   -0.0367
            -0.0003
 Net Total:  0.00000000


 Atom-Atom Population Matrix (off-diagonal elements not doubled)
 ===============================================================

     1 :     4.2202
     2 :    -0.0390    0.9760
     3 :     0.2296    0.0158   35.1648
     4 :     0.3891    0.3459   -0.0270    4.3482
     5 :     0.3753   -0.0215   -0.0346   -0.0301    0.9524
     6 :     0.3609   -0.0218   -0.0350   -0.0307   -0.0940    0.9736
     7 :    -0.0380   -0.0563   -0.0112    0.3923    0.0065   -0.0091    4.8017
     8 :    -0.0022   -0.0032   -0.0051    0.0019   -0.0006   -0.0014    0.9026    6.3562
     9 :    -0.0482   -0.0595   -0.0290    0.3389   -0.0053    0.0064   -0.0492   -0.0027    5.9940
    10 :    -0.0012   -0.0219    0.0007   -0.0372    0.0012   -0.0028   -0.0086   -0.0011    0.4412    0.7132
    11 :    -0.0121    0.0030    0.0125   -0.0525   -0.0073    0.0020   -0.0087   -0.0005    0.4489   -0.0468
             0.6618



 =================================================
 H I R S H F E L D   C H A R G E   A N A L Y S I S
 =================================================
  
 For each fragment: the (numerical) integral of rho(scf) * rho(fragment)/rho(sum-of-fragments)
 (nuclear charges are included, electrons are counted negative)

 The fragments and their ordering are defined in the early G E O M E T R Y output section.
 If you use single-atom fragments, this usually implies that all atoms of the same
 chemical type are grouped together. This may not be the order in which you listed them
 in the input file!

  Fragment                       Charge
 ------------------------------------------
    1  C                         0.0101
    2  C                         0.0395
    3  C                         0.0596
    4  H                         0.0698
    5  H                         0.0613
    6  H                         0.0624
    7  H                         0.1138
    8  H                         0.0870
    9  Br                       -0.0896
   10  N                        -0.2098
   11  N                        -0.2041

 Sum of these charges =          0.00005725
 (accuracy NumInt/Tails)



 =============================
 V O R O N O I   C H A R G E S
 =============================
  
 For each atom: the (numerical) integral of the total electronic charge density in its Voronoi cell,
 i.e. the region of space that is closer to that atom than to any other atom.
 (cf. Wigner-Seitz cells in crystals)

 Within the Voronoi cell the subintegrals over the atomic sphere and the remaining part are evaluated
 separately to give the numbers of electrons (negative charge) in these regions.
 The net total charge in the cell (including the nuclear charge) is also given.

 Values are provided for
    a) the Initial (sum-of-fragments) density
    b) the Orthogonalized-Fragments density
    c) the SCF density
    d) the Voronoi Deformation Density (VDD): the difference SCF-Initial for the complete atomic cell

  Atom                Initial                    OrthFrag                   SCF
             Sphere RestCell NetTotal   Sphere RestCell NetTotal   Sphere RestCell NetTotal      VDD
 -------     ------------------------   ------------------------   ------------------------    -----
    1 C      -2.088   -2.913    0.999   -2.187   -3.087    0.726   -2.103   -2.888    1.009    0.010
    2 H      -0.076   -1.508   -0.584   -0.099   -1.313   -0.412   -0.110   -1.358   -0.468    0.116
    3 Br    -28.768   -5.928    0.303  -28.823   -5.940    0.237  -28.768   -6.079    0.153   -0.150
    4 C      -2.092   -3.217    0.691   -2.219   -3.340    0.441   -2.105   -3.207    0.688   -0.003
    5 H      -0.076   -1.513   -0.589   -0.099   -1.335   -0.435   -0.111   -1.402   -0.512    0.077
    6 H      -0.076   -1.533   -0.609   -0.099   -1.346   -0.445   -0.111   -1.411   -0.522    0.087
    7 C      -2.093   -3.845    0.062   -2.183   -3.689    0.129   -2.115   -3.798    0.087    0.025
    8 N      -2.324   -4.727   -0.051   -2.425   -4.675   -0.100   -2.336   -4.911   -0.247   -0.197
    9 N      -2.326   -3.676    0.998   -2.466   -3.798    0.736   -2.349   -3.861    0.789   -0.209
   10 H      -0.080   -1.493   -0.573   -0.092   -1.321   -0.414   -0.110   -1.331   -0.441    0.132
   11 H      -0.080   -1.568   -0.647   -0.096   -1.369   -0.464   -0.109   -1.427   -0.536    0.112
 ---------------------------------------------------------------------------------------------------
 Total NetCharge:               0.000                      0.000                      0.000    0.000
 (accuracy NumInt/Tails)

 Remark: the 'NetTotal' Voronoi charges often do not match the Mulliken and/or Hirshfeld charges very
 well. This is caused by the fact that chemically different atoms are not treated in accordance with
 their relative sizes. (Voronoi cells are defined by boundary planes halfway between the atoms.)
 However, the CHANGES in charge, comparing 'Initial' to 'SCF' for instance, do give a fair indication
[...]
                                   -1.75%     1 S              -6.532  1.00     4 H
                                    1.71%     2 S               2.394  0.00     8 H
                                    1.62%     1 P:z            -7.062  1.00    11 N
                                    1.57%     2 P:x             4.589  0.00     2 C
                                    1.52%     2 P:y             4.589  0.00     2 C
                                   -1.40%     3 S              10.158  0.00     3 C
                                   -1.30%     3 S              14.073  0.00    10 N
                                    1.30%     1 P:y            11.051  0.00     7 H
                                   -1.22%     2 S             -13.620  2.00     3 C
       0.143  0.00    41 A         38.09%     1 S              -6.532  1.00     4 H
                                  -32.04%     2 P:x             4.589  0.00     2 C
                                   24.10%     1 S              -6.532  1.00     8 H
                                   22.56%     2 S               2.394  0.00     4 H
                                   19.97%     2 S               2.394  0.00     8 H
                                    9.54%     2 P:x             4.589  0.00     1 C
                                    4.42%     2 P:x             4.589  0.00     3 C
                                   -3.59%     2 P:x             7.649  0.00    11 N
                                    2.50%     1 S              -6.532  1.00     5 H
                                    2.40%     2 S             -13.620  2.00     2 C
                                    2.11%     1 S              -6.532  1.00     6 H
                                    2.10%     2 S               2.394  0.00     7 H
                                   -2.10%     5 S               6.099  0.00     9 Br
                                   -2.04%     1 P:x            -5.239  0.67     2 C
                                    1.98%     3 S              40.869  0.00     4 H
                                    1.93%     2 S               2.394  0.00     5 H
                                   -1.91%     2 P:z             7.649  0.00    11 N
                                   -1.77%     3 S              10.158  0.00     2 C
                                    1.60%     1 P:x            -5.239  0.67     1 C
                                    1.43%     1 P:x            11.051  0.00     4 H
                                    1.31%     1 P:y            -5.239  0.67     3 C
                                    1.30%     1 S              -6.532  1.00     7 H
                                    1.19%     1 P:x            -5.239  0.67     3 C
                                    1.18%     2 S             -13.620  2.00     1 C
                                    1.10%     1 P:x            11.051  0.00     8 H
                                   -1.08%     2 P:z             4.589  0.00     2 C
                                    1.07%     1 P:y            -7.062  1.00    10 N
                                    1.00%     3 P:x            54.789  0.00     2 C
       0.396  0.00    42 A         27.37%     2 S               2.394  0.00     6 H
                                   20.59%     1 S              -6.532  1.00     6 H
                                   19.26%     2 S               2.394  0.00     5 H
                                   16.79%     2 S               2.394  0.00     7 H
                                   16.63%     1 S              -6.532  1.00     7 H
                                   11.99%     1 S              -6.532  1.00     5 H
                                   -9.46%     2 P:y             4.589  0.00     2 C
                                   -8.58%     2 P:y             4.589  0.00     1 C
                                   -5.70%     2 P:y             7.649  0.00    11 N
                                    4.28%     1 P:y            -7.062  1.00    10 N
                                    4.20%     1 P:y            -5.239  0.67     3 C
                                   -3.36%     3 S              10.158  0.00     1 C
                                   -2.20%     1 P:y            -5.239  0.67     2 C
                                   -1.67%     4 P:x             3.720  0.00     9 Br
                                    1.58%     4 P:y             3.720  0.00     9 Br
                                   -1.35%     5 S               6.099  0.00     9 Br
                                    1.20%     1 P:x            -5.239  0.67     1 C
                                    1.06%     1 P:y            -7.062  1.00    11 N
                                    1.03%     1 P:z            -5.239  0.67     3 C
                                   -1.02%     2 P:z             4.589  0.00     3 C
                                    1.01%     2 S             -13.620  2.00     3 C
       0.836  0.00    43 A        -57.12%     2 P:z             4.589  0.00     1 C
                                   44.11%     1 S              -6.532  1.00     5 H
                                   31.23%     2 S               2.394  0.00     5 H
                                   31.00%     1 S              -6.532  1.00     6 H
                                   14.29%     2 P:z             4.589  0.00     2 C
                                   13.28%     2 S               2.394  0.00     6 H
                                    4.75%     2 P:z             4.589  0.00     3 C
                                    3.31%     1 P:z            -5.239  0.67     1 C
                                    2.32%     3 S              40.869  0.00     6 H
                                    2.29%     2 S               2.394  0.00     7 H
                                    1.99%     1 P:x            -5.239  0.67     3 C
                                    1.94%     3 S              40.869  0.00     5 H
                                    1.94%     4 P:z             3.720  0.00     9 Br
                                   -1.69%     3 S              14.073  0.00    10 N
                                    1.42%     3 P:z            54.789  0.00     1 C
                                    1.31%     2 S             -13.620  2.00     3 C
                                   -1.24%     2 S               2.394  0.00     8 H
       1.427  0.00    44 A         26.58%     1 S              -6.532  1.00     8 H
                                   25.11%     1 S              -6.532  1.00     7 H
                                   14.24%     2 S               2.394  0.00     8 H
                                   -7.50%     2 P:x             7.649  0.00    11 N
                                    6.76%     1 S              -6.532  1.00     6 H
                                    5.94%     4 P:x             3.720  0.00     9 Br
                                    5.30%     2 S               2.394  0.00     4 H
                                    5.30%     2 P:y             4.589  0.00     1 C
                                    4.98%     1 P:y            -5.239  0.67     1 C
                                    4.88%     1 P:x            -7.062  1.00    11 N
                                    4.36%     2 S             -13.620  2.00     2 C
                                   -3.95%     2 S               2.394  0.00     7 H
                                   -3.90%     2 P:y             7.649  0.00    11 N
                                    3.84%     2 S             -13.620  2.00     1 C
                                   -3.57%     3 S              10.158  0.00     2 C
                                   -3.18%     4 P:y             3.720  0.00     9 Br
                                   -2.62%     3 S              14.073  0.00    10 N
                                    2.61%     2 P:z             4.589  0.00     2 C
                                   -2.41%     3 S              10.158  0.00     1 C
                                    2.18%     3 S              40.869  0.00     7 H
                                    2.15%     2 P:z             4.589  0.00     3 C
                                    2.13%     1 S              -6.532  1.00     4 H
                                    1.46%     2 P:x             4.589  0.00     3 C
                                   -1.35%     2 P:z             4.589  0.00     1 C
                                    1.17%     1 P:y            -7.062  1.00    11 N
                                    1.09%     2 P:x             4.589  0.00     1 C
                                    1.02%     1 P:y            11.051  0.00     6 H
       2.023  0.00    45 A         16.75%     1 P:y            -5.239  0.67     1 C
                                   14.29%     1 S              -6.532  1.00     5 H
                                   10.45%     2 P:z             4.589  0.00     3 C
                                    9.64%     1 S              -6.532  1.00     8 H
                                   -8.38%     2 S               2.394  0.00     5 H
                                   -8.11%     3 S              14.073  0.00    10 N
                                    7.10%     1 P:x            -5.239  0.67     3 C
                                    6.32%     2 P:z             4.589  0.00     2 C
                                    5.93%     2 P:y             4.589  0.00     2 C
                                    5.85%     1 S              -6.532  1.00     4 H
                                    5.32%     1 P:x            -5.239  0.67     2 C
                                    5.29%     1 P:y            -5.239  0.67     2 C
                                    4.90%     2 P:y             4.589  0.00     1 C
                                   -4.78%     2 P:x             4.589  0.00     2 C
                                    3.79%     2 S               2.394  0.00     8 H
                                    3.10%     2 P:x             4.589  0.00     1 C
                                    2.95%     2 S             -13.620  2.00     2 C
                                    2.27%     4 P:x             3.720  0.00     9 Br
                                    2.20%     1 P:y            -7.062  1.00    11 N
                                    2.20%     2 S             -13.620  2.00     3 C
                                   -2.09%     3 S              10.158  0.00     2 C
                                    2.01%     1 P:z            -5.239  0.67     1 C
                                    1.97%     2 S               2.394  0.00     4 H
                                   -1.91%     2 P:z             4.589  0.00     1 C
                                    1.67%     2 P:y             4.589  0.00     3 C
                                    1.42%     2 D:yz            7.341  0.00     9 Br
                                    1.22%     1 P:x            -5.239  0.67     1 C
                                    1.12%     1 P:x            -7.062  1.00    10 N
                                    1.08%     1 P:z            -7.062  1.00    10 N
                                    1.01%     3 S              40.869  0.00     4 H



 =======================================================================
 Electrostatic potential at the Nuclei due to electrons and other nuclei
 =======================================================================
  
         Atom                  Potential
         ----                  ---------
     1)   C                  14.69931397
     2)   H                   1.04267163
     3)   Br                180.53696896
     4)   C                  14.67390806
     5)   H                   1.04963152
     6)   H                   1.04686941
     7)   C                  14.75211526
     8)   N                  18.42457045
     9)   N                  18.39670388
    10)   H                   1.02407844
    11)   H                   1.02692031
 Mulliken charges used for AMS results%charges...


    =====================
     CALCULATION RESULTS
    =====================

Energy (hartree)            -2.19730619


--------------
Atomic charges
--------------
  Index   Atom    Charge
      1      C    0.5658
      2      H   -0.1176
      3     Br   -0.2814
      4      C    0.3612
      5      H   -0.1420
      6      H   -0.1480
      7      C    0.0782
      8      N   -0.2437
      9      N   -0.0355
     10      H   -0.0367
     11      H   -0.0003


Dipole moment vector    (Debye):     2.97663855   -0.53094951   -2.16003868
              magnitude (Debye):     3.71591866


-----------------------
Molecular orbitals info
-----------------------
n orbitals:              241
n spin:                    1

Note: only printing virtual orbitals with
      energy smaller than HOMO + 100. eV

HOMO (eV):              -6.7154
LUMO (eV):              -3.2723
HOMO-LUMO gap (eV):      3.4431

   Index   Energy (eV)    Occupation
     157       91.8260         0.000       
     156       90.8201         0.000       
     155       89.0808         0.000       
     154       87.9903         0.000       
     153       86.9507         0.000       
     152       84.9909         0.000       
     151       83.2274         0.000       
     150       82.3774         0.000       
     149       81.6138         0.000       
     148       81.1181         0.000       
     147       80.4374         0.000       
     146       79.0590         0.000       
     145       78.4367         0.000       
     144       77.8967         0.000       
     143       76.2775         0.000       
     142       76.2111         0.000       
     141       75.6543         0.000       
     140       74.5057         0.000       
     139       72.9572         0.000       
     138       71.3655         0.000       
     137       71.3084         0.000       
     136       70.7463         0.000       
     135       70.3255         0.000       
     134       68.2197         0.000       
     133       67.5558         0.000       
     132       66.9593         0.000       
     131       65.6846         0.000       
     130       63.3018         0.000       
     129       62.7971         0.000       
     128       61.9945         0.000       
     127       61.1676         0.000       
     126       58.9414         0.000       
     125       57.2600         0.000       
     124       57.0577         0.000       
     123       55.3834         0.000       
     122       53.2408         0.000       
     121       52.4229         0.000       
     120       51.1252         0.000       
     119       49.2239         0.000       
     118       48.1881         0.000       
     117       47.8426         0.000       
     116       45.4712         0.000       
     115       44.7159         0.000       
     114       44.2383         0.000       
     113       42.7357         0.000       
     112       42.1105         0.000       
     111       41.3310         0.000       
     110       39.9938         0.000       
     109       39.4178         0.000       
     108       38.6777         0.000       
     107       37.7016         0.000       
     106       37.2682         0.000       
     105       36.2149         0.000       
     104       35.2591         0.000       
     103       34.6184         0.000       
     102       34.4825         0.000       
     101       33.7135         0.000       
     100       33.1013         0.000       
      99       32.3512         0.000       
      98       32.0245         0.000       
      97       31.2368         0.000       
      96       29.8482         0.000       
      95       29.8103         0.000       
      94       29.2666         0.000       
      93       29.1158         0.000       
      92       27.9843         0.000       
      91       27.2281         0.000       
      90       26.6521         0.000       
      89       26.4508         0.000       
      88       25.4598         0.000       
      87       25.0209         0.000       
      86       24.6861         0.000       
      85       24.2329         0.000       
      84       23.9236         0.000       
      83       23.4166         0.000       
      82       23.3801         0.000       
      81       21.8116         0.000       
      80       20.1026         0.000       
      79       19.0637         0.000       
      78       18.4048         0.000       
      77       17.6731         0.000       
      76       17.3882         0.000       
      75       16.6282         0.000       
      74       15.9570         0.000       
      73       14.1155         0.000       
      72       13.4240         0.000       
      71       13.2172         0.000       
      70       12.8790         0.000       
      69       12.1490         0.000       
      68       11.4928         0.000       
      67       11.0644         0.000       
      66       10.6191         0.000       
      65        9.9939         0.000       
      64        9.6777         0.000       
      63        9.1807         0.000       
      62        8.7011         0.000       
      61        8.4515         0.000       
      60        8.2142         0.000       
      59        7.1742         0.000       
      58        6.8022         0.000       
      57        6.3277         0.000       
      56        6.1762         0.000       
      55        6.0084         0.000       
      54        5.4895         0.000       
      53        5.1923         0.000       
      52        4.9495         0.000       
      51        4.6577         0.000       
      50        4.3896         0.000       
      49        4.0528         0.000       
      48        3.7629         0.000       
      47        3.4194         0.000       
      46        2.7690         0.000       
      45        2.0231         0.000       
      44        1.4275         0.000       
      43        0.8362         0.000       
      42        0.3957         0.000       
      41        0.1426         0.000       
      40       -0.4595         0.000       
      39       -0.9791         0.000       
      38       -1.1212         0.000       
      37       -3.2723         0.000 < LUMO
      36       -6.7154         2.000 < HOMO
      35       -6.7758         2.000       
      34       -6.9475         2.000       
      33       -8.2254         2.000       
      32       -8.4684         2.000       
      31       -8.7145         2.000       
      30       -8.9766         2.000       
      29      -10.8313         2.000       
      28      -11.4295         2.000       
      27      -12.1678         2.000       
      26      -13.4847         2.000       
      25      -14.0270         2.000       
      24      -16.7133         2.000       
      23      -19.0503         2.000       
      22      -20.2016         2.000       
      21      -22.3980         2.000       
      20      -23.6146         2.000       
      19      -65.4954         2.000       
      18      -65.4981         2.000       
      17      -65.7398         2.000       
      16      -65.7467         2.000       
      15      -65.8240         2.000       
      14     -172.0714         2.000       
      13     -172.0803         2.000       
      12     -172.4081         2.000       
      11     -235.9587         2.000       
      10     -271.3611         2.000       
       9     -272.5344         2.000       
       8     -272.9644         2.000       
       7     -381.9138         2.000       
       6     -382.1172         2.000       
       5    -1526.1964         2.000       
       4    -1526.1995         2.000       
       3    -1526.3130         2.000       
       2    -1729.3231         2.000       
       1   -13295.8232         2.000       

AMS application finished. Exiting.
NORMAL TERMINATION
     Total cpu time:      31.56
  Total system time:       0.32
 Total elapsed time:      32.01
NORMAL TERMINATION
