
 *******************************************************************************
 *                                                                             *
 *  --------------------------------                                           *
 *   Amsterdam Modeling Suite (AMS)              2026.103                      *
 *  --------------------------------                                           *
 *                                               r260501 2026-05-01 873454b5   *
 *                                                                             *
 *                                                                             *
 *                              =================                              *
 *                              |               |                              *
 *                              |     A M S     |                              *
 *                              |               |                              *
 *                              =================                              *
 *                                                                             *
 *                                                                             *
 *   Online information and documentation:  https://www.scm.com/support/       *
 *   E-mail:  support@scm.com   info@scm.com                                   *
 *                                                                             *
 *   Scientific publications using AMS results must be properly referenced     *
 *   See the User Manuals (or the web site) for recommended citations          *
 *   The terms and conditions of the End User License Agreement apply to       *
 *   the use of AMS, https://www.scm.com/license-terms/                        *
 *                                                                             *
 **********************  x86_64_linux_intel / intelmpi  ************************
 
 Licensed to: Jong-June Jeon / University of Seoul 2026-05-13 16:10:32
 SCM User ID: u30731
  
 AMS 2026.103  RunTime: May23-2026 13:16:16  ShM Nodes: 1  Procs: 1

 AMS jobname: optA
 AMS jobid  : 743991602

 Start   directory: /gpfs/tmp_cpu2/yeseo1ee_plams/cn_batch/plams_cn/optA/
 Results directory: /gpfs/tmp_cpu2/yeseo1ee_plams/cn_batch/plams_cn/optA/
 Scratch directory: /tmp/amstmp_optA_kid0.743991602/

 RNG seed: 1558785629 1030001200 1926712886 439849794 -1909626842 1327653481 -569662246 995680604



                      ************************************************************************
                      *  ADF 2026.103  RunTime: May23-2026 13:16:17  ShM Nodes: 1  Procs: 1  *
                      ************************************************************************
  

       ***************************
       *  GEOMETRY OPTIMIZATION  *
       ***************************

Optimization Method                    Quasi Newton
Optimization Coordinates               Delocalized Coordinates
Optimize lattice                       F
 
 ------------------------------------------------------
 Convergence criteria (Hartree,Angstrom)
 ------------------------------------------------------
 Maximum gradient               0.001000000000
 Maximum rms gradient           0.000666666667
 Maximum step allowed           0.010000000000
 Maximum rms step allowed       0.006666666667
 Maximum energy change allowe   0.000070000000
 Maximum stress energy allowe   0.000500000000
 
Initial model Hessian                  Automatic Hessian
 
------------------------------------
Quasi-Newton Optimizer Parameters
------------------------------------
Hessian Update Method                  BFGS
Maximum number of steps                  250
First GDIIS cycle                          0
Maximum GDIIS vectors                      0
Trust radius (bohr)                        0.200000
Trust radius varies                        T
Constraints converged at all steps         T
Use projector                              T
 
 Rigid motions settings for: old optimizer
 Atomic rotations (x,y,z):     T T T
 Atomic translations (x,y,z):  T T T
 Tolerance:                  1.000000000000000E-006

--------
Geometry
--------
Formula: C3H2NO
Atoms
  Index Symbol   x (angstrom)   y (angstrom)   z (angstrom)
      1      C    -1.08095846    -1.03177363    -0.44450856
      2      C    -1.33155008     0.17029140     0.16676604
      3      C    -1.75701977     1.27984996    -0.68649962
      4      N    -2.06609950     2.15977649    -1.35786819
      5      O    -0.98093219     0.45528547     1.34879133
      6      H    -1.39868848    -1.19529789    -1.46433771
      7      H    -0.93051943    -1.89652874     0.18184110

Total System Charge              0.00000


----------------
ADF Engine Input
----------------
 
   basis
     core None
     type TZ2P
   End
   numericalquality Good
   relativity
     level Scalar
   End
   scf
     mixing 0.05
   End
   spinpolarization 1
   symmetry NOSYM
   unrestricted yes
   xc
     dispersion Grimme3 BJDAMP
     gga BLYP
   End
 

 Title: *** (NO TITLE) ***

Challenging geometry: could not add a dihedral for atom    4
 Using automatic Hessian for delocalized coordinates.
 *** GO1_GOStep1 ***

 Energy gradients wrt nuclear displacements
 ==========================================

     Atom      Cartesian (a.u./angstrom)
                 X         Y         Z
 ----------------------------------------
     1 C     0.036825  0.067904  0.017865
     2 C    -0.040143 -0.079782 -0.037281
     3 C     0.000441  0.032429 -0.020650
     4 N     0.015081 -0.042512  0.031233
     5 O     0.016009  0.013380  0.001280
     6 H    -0.009139  0.000045  0.013050
     7 H    -0.019075  0.008537 -0.005497
 ----------------------------------------
 
----------------------------------------------------------------------
Geometry Convergence after Step   1       (Hartree/Angstrom,Angstrom)
----------------------------------------------------------------------
current energy                               -1.63049141 Hartree
energy change                      -1.63049141     0.00007000    F
constrained gradient max            0.07977723     0.00100000    F
constrained gradient rms            0.03184699     0.00066667    F
gradient max                        0.07977768
gradient rms                        0.03184699
cart. step max                      0.03814685     0.01000000    F
cart. step rms                      0.02000433     0.00666667    F
 

--------
Geometry
--------
Formula: C3H2NO
Atoms
  Index Symbol   x (angstrom)   y (angstrom)   z (angstrom)
      1      C    -1.10169886    -1.05885973    -0.44164692
      2      C    -1.29462909     0.19440068     0.16195013
      3      C    -1.75243828     1.30456102    -0.68789835
      4      N    -2.09344806     2.19792334    -1.36201450
      5      O    -0.99231110     0.45377618     1.35933313
      6      H    -1.38345762    -1.22770407    -1.47582815
      7      H    -0.92778490    -1.92249436     0.19028904

Total System Charge              0.00000

 *** GO1_GOStep2 ***

 Energy gradients wrt nuclear displacements
 ==========================================

     Atom      Cartesian (a.u./angstrom)
                 X         Y         Z
 ----------------------------------------
     1 C     0.027957  0.027342  0.007172
     2 C    -0.024899 -0.035455 -0.029305
     3 C     0.012823 -0.023081  0.025010
     4 N    -0.008246  0.023369 -0.018884
     5 O     0.010873  0.009960  0.013580
     6 H    -0.006068 -0.002122  0.005474
     7 H    -0.012440 -0.000013 -0.003047
 ----------------------------------------

 dE(predicted):    -0.60155E-02, dE(actual):    -0.51669E-02, Trust radius:    0.400000, all in a.u.
 
----------------------------------------------------------------------
Geometry Convergence after Step   2       (Hartree/Angstrom,Angstrom)
----------------------------------------------------------------------
current energy                               -1.63565836 Hartree
energy change                      -0.00516695     0.00007000    F
constrained gradient max            0.03544676     0.00100000    F
constrained gradient rms            0.01857675     0.00066667    F
gradient max                        0.03544739
gradient rms                        0.01857675
cart. step max                      0.07649856     0.01000000    F
cart. step rms                      0.02521302     0.00666667    F
 

--------
Geometry
--------
Formula: C3H2NO
Atoms
  Index Symbol   x (angstrom)   y (angstrom)   z (angstrom)
      1      C    -1.17819743    -1.07242553    -0.42878239
      2      C    -1.25166463     0.21593287     0.15700571
      3      C    -1.73030450     1.31608425    -0.69827980
      4      N    -2.09760433     2.18371285    -1.35467632
      5      O    -1.02358828     0.44189495     1.36590981
      6      H    -1.38666811    -1.22845712    -1.48408860
      7      H    -0.87774062    -1.91513921     0.18709597

Total System Charge              0.00000

 *** GO1_GOStep3 ***

 Energy gradients wrt nuclear displacements
 ==========================================

     Atom      Cartesian (a.u./angstrom)
                 X         Y         Z
 ----------------------------------------
     1 C    -0.007102  0.009861  0.009832
     2 C     0.014044 -0.005595 -0.016320
     3 C    -0.023166  0.041157 -0.027138
     4 N     0.019486 -0.044286  0.032945
     5 O    -0.004940  0.000471  0.002842
     6 H     0.001698 -0.000742 -0.000069
     7 H    -0.000020 -0.000866 -0.002091
 ----------------------------------------

 dE(predicted):    -0.32300E-02, dE(actual):    -0.17600E-02, Trust radius:    0.400000, all in a.u.
 
----------------------------------------------------------------------
Geometry Convergence after Step   3       (Hartree/Angstrom,Angstrom)
----------------------------------------------------------------------
current energy                               -1.63741838 Hartree
energy change                      -0.00176003     0.00007000    F
constrained gradient max            0.04427886     0.00100000    F
constrained gradient rms            0.01848268     0.00066667    F
gradient max                        0.04427840
gradient rms                        0.01848268
cart. step max                      0.09240274     0.01000000    F
cart. step rms                      0.03336694     0.00666667    F
 

--------
Geometry
--------
Formula: C3H2NO
Atoms
  Index Symbol   x (angstrom)   y (angstrom)   z (angstrom)
      1      C    -1.21427282    -1.08988810    -0.42032587
      2      C    -1.33507012     0.20518288     0.18966781
      3      C    -1.73058381     1.31948714    -0.69820592
      4      N    -2.05208934     2.20807263    -1.38011810
      5      O    -1.01348927     0.43908746     1.36931600
      6      H    -1.41492466    -1.23799428    -1.48056408
      7      H    -0.78533788    -1.90234467     0.16441455

Total System Charge              0.00000

 *** GO1_GOStep4 ***

 Energy gradients wrt nuclear displacements
 ==========================================

     Atom      Cartesian (a.u./angstrom)
                 X         Y         Z
 ----------------------------------------
     1 C    -0.004108 -0.005264  0.002388
     2 C    -0.017192  0.006347  0.006731
     3 C     0.011746 -0.007206  0.005358
     4 N    -0.004837  0.009651 -0.007134
     5 O     0.005876 -0.000635 -0.002842
     6 H     0.002752 -0.000888 -0.003089
     7 H     0.005763 -0.002004 -0.001413
 ----------------------------------------

 dE(predicted):    -0.12455E-02, dE(actual):     0.36347E-04, Trust radius:    0.064326, all in a.u.
 
----------------------------------------------------------------------
Geometry Convergence after Step   4       (Hartree/Angstrom,Angstrom)
----------------------------------------------------------------------
current energy                               -1.63738204 Hartree
energy change                       0.00003635     0.00007000    T
constrained gradient max            0.01719241     0.00100000    F
constrained gradient rms            0.00661029     0.00066667    F
gradient max                        0.01718968
gradient rms                        0.00661029
cart. step max                      0.02095952     0.01000000    F
cart. step rms                      0.00755476     0.00666667    F
 

--------
Geometry
--------
Formula: C3H2NO
Atoms
  Index Symbol   x (angstrom)   y (angstrom)   z (angstrom)
      1      C    -1.20349028    -1.08410182    -0.42384184
      2      C    -1.31411060     0.20614685     0.18385208
      3      C    -1.73016657     1.31615973    -0.69824376
      4      N    -2.06071515     2.20055003    -1.37744102
      5      O    -1.01887248     0.43917449     1.37209206
      6      H    -1.41488949    -1.23259056    -1.48044770
      7      H    -0.80352334    -1.90373566     0.16821457

Total System Charge              0.00000

 *** GO1_GOStep5 ***

 Energy gradients wrt nuclear displacements
 ==========================================

     Atom      Cartesian (a.u./angstrom)
                 X         Y         Z
 ----------------------------------------
     1 C    -0.004746 -0.001405  0.002468
     2 C    -0.008763  0.001333  0.001647
     3 C     0.006069 -0.002332  0.001644
     4 N    -0.001803  0.002895 -0.002059
     5 O     0.003129  0.000347 -0.000717
     6 H     0.002258 -0.000475 -0.001448
     7 H     0.003856 -0.000364 -0.001535
 ----------------------------------------

 dE(predicted):    -0.50136E-03, dE(actual):    -0.50996E-03, Trust radius:    0.128652, all in a.u.
 
----------------------------------------------------------------------
Geometry Convergence after Step   5       (Hartree/Angstrom,Angstrom)
----------------------------------------------------------------------
current energy                               -1.63789199 Hartree
energy change                      -0.00050996     0.00007000    F
constrained gradient max            0.00875973     0.00100000    F
constrained gradient rms            0.00314650     0.00066667    F
gradient max                        0.00875842
gradient rms                        0.00314650
cart. step max                      0.03919357     0.01000000    F
cart. step rms                      0.01429133     0.00666667    F
 

--------
Geometry
--------
Formula: C3H2NO
Atoms
  Index Symbol   x (angstrom)   y (angstrom)   z (angstrom)
      1      C    -1.17269021    -1.07639398    -0.43217045
      2      C    -1.28327496     0.21086412     0.17588600
      3      C    -1.73116479     1.31548086    -0.69822832
      4      N    -2.07979608     2.19615450    -1.37405244
      5      O    -1.02357861     0.43656680     1.37410832
      6      H    -1.41254636    -1.22947948    -1.48107854
      7      H    -0.84271691    -1.91158977     0.17971982

Total System Charge              0.00000

 *** GO1_GOStep6 ***

 Energy gradients wrt nuclear displacements
 ==========================================

     Atom      Cartesian (a.u./angstrom)
                 X         Y         Z
 ----------------------------------------
     1 C     0.000330  0.000920  0.000889
     2 C    -0.000651  0.000277 -0.000749
     3 C     0.001928 -0.004724  0.003692
     4 N    -0.001689  0.004534 -0.003456
     5 O     0.000143 -0.000217  0.000057
     6 H    -0.000036 -0.000413 -0.000033
     7 H    -0.000024 -0.000377 -0.000400
 ----------------------------------------

 dE(predicted):    -0.33608E-03, dE(actual):    -0.31369E-03, Trust radius:    0.257304, all in a.u.
 
----------------------------------------------------------------------
Geometry Convergence after Step   6       (Hartree/Angstrom,Angstrom)
----------------------------------------------------------------------
current energy                               -1.63820568 Hartree
energy change                      -0.00031369     0.00007000    F
constrained gradient max            0.00472551     0.00100000    F
constrained gradient rms            0.00193175     0.00066667    F
gradient max                        0.00472549
gradient rms                        0.00193175
cart. step max                      0.00240578     0.01000000    T
cart. step rms                      0.00105535     0.00666667    T
 

--------
Geometry
--------
Formula: C3H2NO
Atoms
  Index Symbol   x (angstrom)   y (angstrom)   z (angstrom)
      1      C    -1.17342302    -1.07650668    -0.43244336
      2      C    -1.28174029     0.21097886     0.17559680
      3      C    -1.73088616     1.31543639    -0.69849737
      4      N    -2.08091541     2.19404566    -1.37303439
      5      O    -1.02292330     0.43720719     1.37409241
      6      H    -1.41075705    -1.22805205    -1.48204044
      7      H    -0.84512269    -1.91150632     0.18051075

Total System Charge              0.00000

 *** GO1_GOStep7 ***

 Energy gradients wrt nuclear displacements
 ==========================================

     Atom      Cartesian (a.u./angstrom)
                 X         Y         Z
 ----------------------------------------
     1 C    -0.000130  0.000513  0.000428
     2 C     0.000040 -0.000096 -0.000980
     3 C    -0.000581  0.001108 -0.000802
     4 N     0.000592 -0.001255  0.000983
     5 O     0.000014  0.000091  0.000599
     6 H     0.000056 -0.000218  0.000005
     7 H     0.000008 -0.000144 -0.000233
 ----------------------------------------

 dE(predicted):    -0.68614E-05, dE(actual):    -0.58952E-05, Trust radius:    0.257304, all in a.u.
 
----------------------------------------------------------------------
Geometry Convergence after Step   7       (Hartree/Angstrom,Angstrom)
----------------------------------------------------------------------
current energy                               -1.63821158 Hartree
energy change                      -0.00000590     0.00007000    T
constrained gradient max            0.00125922     0.00100000    F
constrained gradient rms            0.00057855     0.00066667    T
gradient max                        0.00125917
gradient rms                        0.00057855
cart. step max                      0.00070228     0.01000000    T
cart. step rms                      0.00030625     0.00666667    T
 

--------
Geometry
--------
Formula: C3H2NO
Atoms
  Index Symbol   x (angstrom)   y (angstrom)   z (angstrom)
      1      C    -1.17332590    -1.07665280    -0.43255063
      2      C    -1.28164880     0.21094628     0.17588595
      3      C    -1.73062251     1.31541021    -0.69851560
      4      N    -2.08152527     2.19403666    -1.37323081
      5      O    -1.02253024     0.43709689     1.37400572
      6      H    -1.41029021    -1.22760713    -1.48233298
      7      H    -0.84582497    -1.91162705     0.18092274

Total System Charge              0.00000

 *** GO1_GOStep8 ***

 Energy gradients wrt nuclear displacements
 ==========================================

     Atom      Cartesian (a.u./angstrom)
                 X         Y         Z
 ----------------------------------------
     1 C    -0.000047  0.000286  0.000231
     2 C     0.000012  0.000092 -0.000310
     3 C    -0.000044 -0.000029  0.000019
     4 N     0.000091 -0.000094  0.000100
     5 O    -0.000036 -0.000001  0.000108
     6 H     0.000023 -0.000142 -0.000036
     7 H     0.000000 -0.000112 -0.000112
 ----------------------------------------
 
---------------------------------------------------------
Geometry Convergence after Step   8       ** CONVERGED **
---------------------------------------------------------
current energy                               -1.63821217 Hartree
energy change                      -0.00000059     0.00007000    T
constrained gradient max            0.00031090     0.00100000    T
constrained gradient rms            0.00012545     0.00066667    T
gradient max                        0.00031089
gradient rms                        0.00012545
cart. step max                      0.00061441     0.01000000    T
cart. step rms                      0.00027101     0.00666667    T
 
Geometry optimization converged

Optimized geometry:

--------
Geometry
--------
Formula: C3H2NO
Atoms
  Index Symbol   x (angstrom)   y (angstrom)   z (angstrom)
      1      C    -1.17332590    -1.07665280    -0.43255063
      2      C    -1.28164880     0.21094628     0.17588595
      3      C    -1.73062251     1.31541021    -0.69851560
      4      N    -2.08152527     2.19403666    -1.37323081
      5      O    -1.02253024     0.43709689     1.37400572
      6      H    -1.41029021    -1.22760713    -1.48233298
      7      H    -0.84582497    -1.91162705     0.18092274

Total System Charge              0.00000

Performing a single point calculation on the final geometry ...

 *** adf ***



 ===========================
 A T T A C H E D   F I L E S
 ===========================
  
 Restart/tmp/amstmp_optA_kid0.743991602/GO1_GOStep8.rkf*** GO1_GOStep8 ***



 ===============================
 M O D E L   P A R A M E T E R S
 ===============================
  
 DENSITY FUNCTIONAL POTENTIAL (scf)
    LDA:                               Exchange only                           == Not Default ==
    Gradient Corrections:              Becke88 LYP                             == Not Default ==

 SPIN  (restricted / unrestr.)
    Molecule:                          UNrestricted                            == Not Default ==
    Fragments:                         Restricted                               

 OTHER ASPECTS
    Relativistic Corrections:          scalar (ZORA,MAPA)                       

    Nuclear Charge Density Model:      Point Charge Nuclei                      
    Core Treatment:                    Frozen Orbital(s)                        

    Hyperfine or Zeeman Interaction:   ---                                      

 Settings for Grimme D3 dispersion correction

      damping                        BJ
      s6                          1.000
      s8                          2.700
      a1                          0.430
      a2                          4.236

 Other (technical) parameters

      alpha                      14.000
      version                         4
 



 ===============
 G E O M E T R Y  ***  3D  Molecule  ***
 ===============
  

 ATOMS
 =====                            X Y Z                    CHARGE
                                (Angstrom)             Nucl     +Core       At.Mass
                       --------------------------    ----------------       -------
    1  C              -1.1733   -1.0767   -0.4326      6.00      6.00       12.0000
    2  C              -1.2816    0.2109    0.1759      6.00      6.00       12.0000
    3  C              -1.7306    1.3154   -0.6985      6.00      6.00       12.0000
    4  N              -2.0815    2.1940   -1.3732      7.00      7.00       14.0031
    5  O              -1.0225    0.4371    1.3740      8.00      8.00       15.9949
    6  H              -1.4103   -1.2276   -1.4823      1.00      1.00        1.0078
    7  H              -0.8458   -1.9116    0.1809      1.00      1.00        1.0078


 FRAGMENTS
 =========                                     Atoms in this Fragment     Cart. coord.s (Angstrom)
                                               -------------------------------------------------------
    1  C                                                 1  C           -1.1733   -1.0767   -0.4326
    2  C                                                 2  C           -1.2816    0.2109    0.1759
    3  C                                                 3  C           -1.7306    1.3154   -0.6985
    4  N                                                 4  N           -2.0815    2.1940   -1.3732
    5  O                                                 5  O           -1.0225    0.4371    1.3740
    6  H                                                 6  H           -1.4103   -1.2276   -1.4823
    7  H                                                 7  H           -0.8458   -1.9116    0.1809


 Interatomic Distance Matrix (Angstrom)
 --------------------------------------

   1)     0.000
   2)     1.428   0.000
   3)     2.470   1.479   0.000
   4)     3.522   2.640   1.162   0.000
   5)     2.362   1.247   2.360   3.429   0.000
   6)     1.087   2.199   2.680   3.489   3.329   0.000
   7)     1.087   2.167   3.460   4.561   2.640   1.885   0.000

 Min. Distance =    1.0866
 Max. Distance =    4.5606



 =====================================
 S Y M M E T R Y ,   E L E C T R O N S
 =====================================
  
 Symmetry: NOSYM

 Irreducible Representations, including subspecies
 -------------------------------------------------
 A


 Configuration of Valence Electrons
 ==================================
 ( determined in the SCF procedure )

 Total:   18 (Spin-A)  + 17 (Spin-B)

 Net Charge: 0 (Nuclei minus Electrons)
 Spin polar: 1 (Spin_A minus Spin_B electrons)

 Aufbau principle for MO occupations will be applied through SCF cycle no.     150
 Thereafter, the program will assign electrons to MOs that are spatially
 similar to the occupied MOs in a "reference" cycle ("KeepOrbitals").
 The reference cycle is always the PREVIOUS cycle: it will evolve with
 the SCF procedure.
 ***************************************************************************************************



                                      ****************************************
                                      *  B U I L D : (Fragments, Functions)  *
                                      ****************************************
  



 =======
 S F O s  ***  (Symmetrized Fragment Orbitals)  ***
 =======
  
 SFOs are linear combinations of (valence) Fragment Orbitals (FOs), such that the SFOs transform as the
 irreducible representations of the (molecular) symmetry group. Each SFO is therefore characterized by
 an irrep of the molecule and by a few (or only one) generating FOs.
 The SFOs constitute a symmetry-adapted basis for the Fock matrix. The MO eigenvector coefficients in
 this basis provide a direct interpretation of the MOs in terms of Frontier Orbital Theory.

 The SFOs are combined with auxiliary Core Functions (CFs) to ensure orthogonalization on the (frozen)
 Core Orbitals (COs). The Core-orthogonalized SFOs (CSFOs) constitute the true Fock basis.

 The FOs, and hence also the (C)SFOs are combinations of the elementary basis functions (BAS). The basis
 functions that participate in the description of the SFOs depend on the irrep. The indices of the
 involved functions are printed below for each irrep.
 (The complete list of primitive basis functions is printed in another section)

 Total nr. of (C)SFOs (summation over all irreps) :   152

 NOTE: a (C)SFO that is defined as a combination of more than one FO is usually NOT normalized.



                                       === A ===
 Nr. of SFOs :  152
 Cartesian basis functions that participate in this irrep (total number =   174) :
      1     2     3     4     5     6     9    12     7    10
     13     8    11    14    15    16    17    18    19    20
     21    22    23    24    25    26    27    28    29    30
     31    32    33    34    35    36    39    42    37    40
     43    38    41    44    45    46    47    48    49    50
     51    52    53    54    55    56    57    58    59    60
     61    62    63    64    65    66    69    72    67    70
     73    68    71    74    75    76    77    78    79    80
     81    82    83    84    85    86    87    88    89    90
     91    92    93    94    95    96    99   102    97   100
    103    98   101   104   105   106   107   108   109   110
    111   112   113   114   115   116   117   118   119   120
    121   122   123   124   125   126   129   132   127   130
    133   128   131   134   135   136   137   138   139   140
    141   142   143   144   145   146   147   148   149   150
    151   152   153   154   155   156   157   158   159   160
    161   162   163   164   165   166   167   168   169   170
    171   172   173   174

    SFO  (index         Fragment          Generating    Expansion in Fragment Orbitals
  indx  incl.CFs)   Occup   Orb.Energy   FragmentType  Coeff.   Orbital     on Fragment
 --------------------------------------------------------------------------------------
     1       1      2.000     -10.066 au  C             1.00      1 S               1
                        (    -273.921 eV)
     2       2      2.000      -0.501 au  C             1.00      2 S               1
                        (     -13.620 eV)
     3       3       --         0.373 au  C             1.00      3 S               1
                        (      10.158 eV)
     4       4       --         5.405 au  C             1.00      4 S               1
                        (     147.073 eV)
     5       5       --        49.848 au  C             1.00      5 S               1
                        (    1356.422 eV)
     6       6      0.667      -0.193 au  C             1.00      1 P:x             1
                        (      -5.239 eV)
     7       7       --         0.169 au  C             1.00      2 P:x             1
                        (       4.589 eV)
     8       8       --         2.013 au  C             1.00      3 P:x             1
                        (      54.789 eV)
     9       9      0.667      -0.193 au  C             1.00      1 P:y             1
                        (      -5.239 eV)
    10      10       --         0.169 au  C             1.00      2 P:y             1
                        (       4.589 eV)
    11      11       --         2.013 au  C             1.00      3 P:y             1
                        (      54.789 eV)
    12      12      0.667      -0.193 au  C             1.00      1 P:z             1
                        (      -5.239 eV)
    13      13       --         0.169 au  C             1.00      2 P:z             1
                        (       4.589 eV)
    14      14       --         2.013 au  C             1.00      3 P:z             1
                        (      54.789 eV)
    15      15       --         1.243 au  C             1.00      1 D:z2            1
                        (      33.824 eV)
    16      16       --         1.243 au  C             1.00      1 D:x2-y2         1
                        (      33.824 eV)
    17      17       --         1.243 au  C             1.00      1 D:xy            1
                        (      33.824 eV)
    18      18       --         1.243 au  C             1.00      1 D:xz            1
                        (      33.824 eV)
    19      19       --         1.243 au  C             1.00      1 D:yz            1
                        (      33.824 eV)
    20      20       --         4.016 au  C             1.00      1 F:z3            1
                        (     109.271 eV)
    21      21       --         4.016 au  C             1.00      1 F:z             1
                        (     109.271 eV)
    22      22       --         4.016 au  C             1.00      1 F:xyz           1
                        (     109.271 eV)
    23      23       --         4.016 au  C             1.00      1 F:z2x           1
                        (     109.271 eV)
    24      24       --         4.016 au  C             1.00      1 F:z2y           1
                        (     109.271 eV)
    25      25       --         4.016 au  C             1.00      1 F:x             1
                        (     109.271 eV)
    26      26       --         4.016 au  C             1.00      1 F:y             1
                        (     109.271 eV)
    27      27      2.000     -10.066 au  C             1.00      1 S               2
                        (    -273.921 eV)
    28      28      2.000      -0.501 au  C             1.00      2 S               2
                        (     -13.620 eV)
    29      29       --         0.373 au  C             1.00      3 S               2
                        (      10.158 eV)
    30      30       --         5.405 au  C             1.00      4 S               2
                        (     147.073 eV)
    31      31       --        49.848 au  C             1.00      5 S               2
                        (    1356.422 eV)
    32      32      0.667      -0.193 au  C             1.00      1 P:x             2
                        (      -5.239 eV)
    33      33       --         0.169 au  C             1.00      2 P:x             2
                        (       4.589 eV)
    34      34       --         2.013 au  C             1.00      3 P:x             2
                        (      54.789 eV)
    35      35      0.667      -0.193 au  C             1.00      1 P:y             2
                        (      -5.239 eV)
    36      36       --         0.169 au  C             1.00      2 P:y             2
                        (       4.589 eV)
    37      37       --         2.013 au  C             1.00      3 P:y             2
                        (      54.789 eV)
    38      38      0.667      -0.193 au  C             1.00      1 P:z             2
                        (      -5.239 eV)
    39      39       --         0.169 au  C             1.00      2 P:z             2
                        (       4.589 eV)
    40      40       --         2.013 au  C             1.00      3 P:z             2
                        (      54.789 eV)
    41      41       --         1.243 au  C             1.00      1 D:z2            2
                        (      33.824 eV)
    42      42       --         1.243 au  C             1.00      1 D:x2-y2         2
                        (      33.824 eV)
    43      43       --         1.243 au  C             1.00      1 D:xy            2
                        (      33.824 eV)
    44      44       --         1.243 au  C             1.00      1 D:xz            2
                        (      33.824 eV)
    45      45       --         1.243 au  C             1.00      1 D:yz            2
                        (      33.824 eV)
    46      46       --         4.016 au  C             1.00      1 F:z3            2
                        (     109.271 eV)
    47      47       --         4.016 au  C             1.00      1 F:z             2
                        (     109.271 eV)
    48      48       --         4.016 au  C             1.00      1 F:xyz           2
                        (     109.271 eV)
    49      49       --         4.016 au  C             1.00      1 F:z2x           2
                        (     109.271 eV)
    50      50       --         4.016 au  C             1.00      1 F:z2y           2
                        (     109.271 eV)
    51      51       --         4.016 au  C             1.00      1 F:x             2
                        (     109.271 eV)
    52      52       --         4.016 au  C             1.00      1 F:y             2
                        (     109.271 eV)
    53      53      2.000     -10.066 au  C             1.00      1 S               3
                        (    -273.921 eV)
    54      54      2.000      -0.501 au  C             1.00      2 S               3
                        (     -13.620 eV)
    55      55       --         0.373 au  C             1.00      3 S               3
                        (      10.158 eV)
    56      56       --         5.405 au  C             1.00      4 S               3
                        (     147.073 eV)
    57      57       --        49.848 au  C             1.00      5 S               3
                        (    1356.422 eV)
    58      58      0.667      -0.193 au  C             1.00      1 P:x             3
                        (      -5.239 eV)
    59      59       --         0.169 au  C             1.00      2 P:x             3
                        (       4.589 eV)
    60      60       --         2.013 au  C             1.00      3 P:x             3
                        (      54.789 eV)
    61      61      0.667      -0.193 au  C             1.00      1 P:y             3
                        (      -5.239 eV)
    62      62       --         0.169 au  C             1.00      2 P:y             3
                        (       4.589 eV)
    63      63       --         2.013 au  C             1.00      3 P:y             3
                        (      54.789 eV)
    64      64      0.667      -0.193 au  C             1.00      1 P:z             3
                        (      -5.239 eV)
    65      65       --         0.169 au  C             1.00      2 P:z             3
                        (       4.589 eV)
    66      66       --         2.013 au  C             1.00      3 P:z             3
                        (      54.789 eV)
    67      67       --         1.243 au  C             1.00      1 D:z2            3
                        (      33.824 eV)
    68      68       --         1.243 au  C             1.00      1 D:x2-y2         3
                        (      33.824 eV)
    69      69       --         1.243 au  C             1.00      1 D:xy            3
                        (      33.824 eV)
    70      70       --         1.243 au  C             1.00      1 D:xz            3
                        (      33.824 eV)
    71      71       --         1.243 au  C             1.00      1 D:yz            3
                        (      33.824 eV)
    72      72       --         4.016 au  C             1.00      1 F:z3            3
                        (     109.271 eV)
    73      73       --         4.016 au  C             1.00      1 F:z             3
                        (     109.271 eV)
    74      74       --         4.016 au  C             1.00      1 F:xyz           3
                        (     109.271 eV)
    75      75       --         4.016 au  C             1.00      1 F:z2x           3
                        (     109.271 eV)
    76      76       --         4.016 au  C             1.00      1 F:z2y           3
                        (     109.271 eV)
    77      77       --         4.016 au  C             1.00      1 F:x             3
                        (     109.271 eV)
    78      78       --         4.016 au  C             1.00      1 F:y             3
                        (     109.271 eV)
    79      79      2.000     -14.160 au  N             1.00      1 S               4
                        (    -385.319 eV)
    80      80      2.000      -0.678 au  N             1.00      2 S               4
                        (     -18.450 eV)
    81      81       --         0.517 au  N             1.00      3 S               4
                        (      14.073 eV)
    82      82       --         6.872 au  N             1.00      4 S               4
                        (     186.990 eV)
    83      83       --        63.432 au  N             1.00      5 S               4
                        (    1726.082 eV)
    84      84      1.000      -0.260 au  N             1.00      1 P:x             4
                        (      -7.062 eV)
    85      85       --         0.281 au  N             1.00      2 P:x             4
                        (       7.649 eV)
    86      86       --         3.275 au  N             1.00      3 P:x             4
                        (      89.105 eV)
    87      87      1.000      -0.260 au  N             1.00      1 P:y             4
                        (      -7.062 eV)
    88      88       --         0.281 au  N             1.00      2 P:y             4
                        (       7.649 eV)
    89      89       --         3.275 au  N             1.00      3 P:y             4
                        (      89.105 eV)
    90      90      1.000      -0.260 au  N             1.00      1 P:z             4
                        (      -7.062 eV)
    91      91       --         0.281 au  N             1.00      2 P:z             4
                        (       7.649 eV)
    92      92       --         3.275 au  N             1.00      3 P:z             4
                        (      89.105 eV)
    93      93       --         1.250 au  N             1.00      1 D:z2            4
                        (      34.005 eV)
    94      94       --         1.250 au  N             1.00      1 D:x2-y2         4
                        (      34.005 eV)
    95      95       --         1.250 au  N             1.00      1 D:xy            4
                        (      34.005 eV)
    96      96       --         1.250 au  N             1.00      1 D:xz            4
                        (      34.005 eV)
    97      97       --         1.250 au  N             1.00      1 D:yz            4
                        (      34.005 eV)
    98      98       --         4.013 au  N             1.00      1 F:z3            4
                        (     109.190 eV)
    99      99       --         4.013 au  N             1.00      1 F:z             4
                        (     109.190 eV)
   100     100       --         4.013 au  N             1.00      1 F:xyz           4
                        (     109.190 eV)
   101     101       --         4.013 au  N             1.00      1 F:z2x           4
                        (     109.190 eV)
   102     102       --         4.013 au  N             1.00      1 F:z2y           4
                        (     109.190 eV)
   103     103       --         4.013 au  N             1.00      1 F:x             4
                        (     109.190 eV)
   104     104       --         4.013 au  N             1.00      1 F:y             4
                        (     109.190 eV)
   105     105      2.000     -18.941 au  O             1.00      1 S               5
                        (    -515.403 eV)
   106     106      2.000      -0.876 au  O             1.00      2 S               5
                        (     -23.838 eV)
   107     107       --         0.791 au  O             1.00      3 S               5
                        (      21.524 eV)
   108     108       --        13.422 au  O             1.00      4 S               5
                        (     365.226 eV)
   109     109       --       121.561 au  O             1.00      5 S               5
                        (    3307.838 eV)
   110     110      1.333      -0.331 au  O             1.00      1 P:x             5
                        (      -9.020 eV)
   111     111       --         0.347 au  O             1.00      2 P:x             5
                        (       9.437 eV)
   112     112       --         3.820 au  O             1.00      3 P:x             5
                        (     103.939 eV)
   113     113      1.333      -0.331 au  O             1.00      1 P:y             5
                        (      -9.020 eV)
   114     114       --         0.347 au  O             1.00      2 P:y             5
                        (       9.437 eV)
   115     115       --         3.820 au  O             1.00      3 P:y             5
                        (     103.939 eV)
   116     116      1.333      -0.331 au  O             1.00      1 P:z             5
                        (      -9.020 eV)
   117     117       --         0.347 au  O             1.00      2 P:z             5
                        (       9.437 eV)
   118     118       --         3.820 au  O             1.00      3 P:z             5
                        (     103.939 eV)
   119     119       --         1.071 au  O             1.00      1 D:z2            5
                        (      29.134 eV)
   120     120       --         1.071 au  O             1.00      1 D:x2-y2         5
                        (      29.134 eV)
   121     121       --         1.071 au  O             1.00      1 D:xy            5
                        (      29.134 eV)
   122     122       --         1.071 au  O             1.00      1 D:xz            5
                        (      29.134 eV)
   123     123       --         1.071 au  O             1.00      1 D:yz            5
                        (      29.134 eV)
   124     124       --         3.359 au  O             1.00      1 F:z3            5
                        (      91.410 eV)
   125     125       --         3.359 au  O             1.00      1 F:z             5
                        (      91.410 eV)
   126     126       --         3.359 au  O             1.00      1 F:xyz           5
                        (      91.410 eV)
   127     127       --         3.359 au  O             1.00      1 F:z2x           5
                        (      91.410 eV)
   128     128       --         3.359 au  O             1.00      1 F:z2y           5
                        (      91.410 eV)
   129     129       --         3.359 au  O             1.00      1 F:x             5
                        (      91.410 eV)
   130     130       --         3.359 au  O             1.00      1 F:y             5
                        (      91.410 eV)
   131     131      1.000      -0.240 au  H             1.00      1 S               6
                        (      -6.532 eV)
   132     132       --         0.088 au  H             1.00      2 S               6
                        (       2.394 eV)
   133     133       --         1.502 au  H             1.00      3 S               6
                        (      40.869 eV)
   134     134       --         0.406 au  H             1.00      1 P:x             6
                        (      11.051 eV)
   135     135       --         0.406 au  H             1.00      1 P:y             6
                        (      11.051 eV)
   136     136       --         0.406 au  H             1.00      1 P:z             6
                        (      11.051 eV)
   137     137       --         2.569 au  H             1.00      1 D:z2            6
                        (      69.917 eV)
   138     138       --         2.569 au  H             1.00      1 D:x2-y2         6
                        (      69.917 eV)
   139     139       --         2.569 au  H             1.00      1 D:xy            6
                        (      69.917 eV)
   140     140       --         2.569 au  H             1.00      1 D:xz            6
                        (      69.917 eV)
   141     141       --         2.569 au  H             1.00      1 D:yz            6
                        (      69.917 eV)
   142     142      1.000      -0.240 au  H             1.00      1 S               7
                        (      -6.532 eV)
   143     143       --         0.088 au  H             1.00      2 S               7
                        (       2.394 eV)
   144     144       --         1.502 au  H             1.00      3 S               7
                        (      40.869 eV)
   145     145       --         0.406 au  H             1.00      1 P:x             7
                        (      11.051 eV)
   146     146       --         0.406 au  H             1.00      1 P:y             7
                        (      11.051 eV)
   147     147       --         0.406 au  H             1.00      1 P:z             7
                        (      11.051 eV)
   148     148       --         2.569 au  H             1.00      1 D:z2            7
                        (      69.917 eV)
   149     149       --         2.569 au  H             1.00      1 D:x2-y2         7
                        (      69.917 eV)
   150     150       --         2.569 au  H             1.00      1 D:xy            7
                        (      69.917 eV)
   151     151       --         2.569 au  H             1.00      1 D:xz            7
                        (      69.917 eV)
   152     152       --         2.569 au  H             1.00      1 D:yz            7
                        (      69.917 eV)



 ================================
 (Slater-type)  F U N C T I O N S  ***  (Basis and Fit)  ***
 ================================
  

 Atom Type    1  (C)
 ==============

 Valence Basis Sets:  10
 -----------------------
   1 S    7.680000
   1 S    5.000000
   2 S    1.280000
   2 S    2.100000
   2 S    4.600000
   2 P    0.820000
   2 P    1.480000
   2 P    2.940000
   3 D    2.200000
   4 F    3.300000

 Atom Type    2  (N)
 ==============

 Valence Basis Sets:  10
 -----------------------
   1 S    8.740000
   1 S    5.900000
   2 S    5.150000
   2 S    2.500000
   2 S    1.500000
   2 P    3.680000
   2 P    1.880000
   2 P    1.000000
   3 D    2.200000
   4 F    3.300000

 Atom Type    3  (O)
 ==============

 Valence Basis Sets:  10
 -----------------------
   1 S    9.800000
   1 S    6.800000
   2 S    7.580000
   2 S    2.880000
   2 S    1.720000
   2 P    4.080000
   2 P    2.080000
   2 P    1.120000
   3 D    2.000000
   4 F    3.000000

 Atom Type    4  (H)
 ==============

 Valence Basis Sets:   5
 -----------------------
   1 S    0.690000
   1 S    0.920000
   1 S    1.580000
   2 P    1.250000
   3 D    2.500000


 BAS: List of all Elementary Cartesian Basis Functions
 =====================================================

 The numbering in the list below (to the right of the function characteristics) is referred
 to in print-outs of MO eigenvectors and Mulliken populations in the BAS representation
 (as contrasted to the SFO representation).

 Notes:
 1. The functions are characterized by a polynomial prefactor (powers of x,y,z and r) and
    an exponential decay factor alpha.
 2. Since the basis sets are specific for an atom TYPE, the individual functions occur on
    all atoms of that type.
 3. The word 'Core' in the left margin signals that it is a Core Function (CF) : not a
    degree of freedom in the valence set, but only used to ensure orthogonalization of
    the other valence basis functions on the frozen Core Orbitals.


 (power of) X  Y  Z  R     Alpha  on Atom
            ==========     =====     ==========

 C                                    1    2    3
                                  ---------------------------------------------------------------------------
            0  0  0  0     7.680      1   31   61
            0  0  0  0     5.000      2   32   62
            0  0  0  1     1.280      3   33   63
            0  0  0  1     2.100      4   34   64
            0  0  0  1     4.600      5   35   65
            1  0  0  0     0.820      6   36   66
            0  1  0  0     0.820      7   37   67
            0  0  1  0     0.820      8   38   68
            1  0  0  0     1.480      9   39   69
            0  1  0  0     1.480     10   40   70
            0  0  1  0     1.480     11   41   71
            1  0  0  0     2.940     12   42   72
            0  1  0  0     2.940     13   43   73
            0  0  1  0     2.940     14   44   74
            2  0  0  0     2.200     15   45   75
            1  1  0  0     2.200     16   46   76
            1  0  1  0     2.200     17   47   77
            0  2  0  0     2.200     18   48   78
            0  1  1  0     2.200     19   49   79
            0  0  2  0     2.200     20   50   80
            3  0  0  0     3.300     21   51   81
            2  1  0  0     3.300     22   52   82
            2  0  1  0     3.300     23   53   83
            1  2  0  0     3.300     24   54   84
            1  1  1  0     3.300     25   55   85
            1  0  2  0     3.300     26   56   86
            0  3  0  0     3.300     27   57   87
            0  2  1  0     3.300     28   58   88
            0  1  2  0     3.300     29   59   89
            0  0  3  0     3.300     30   60   90

 N                                    4
                                  ---------------------------------------------------------------------------
            0  0  0  0     8.740     91
            0  0  0  0     5.900     92
            0  0  0  1     5.150     93
            0  0  0  1     2.500     94
            0  0  0  1     1.500     95
            1  0  0  0     3.680     96
            0  1  0  0     3.680     97
            0  0  1  0     3.680     98
            1  0  0  0     1.880     99
            0  1  0  0     1.880    100
            0  0  1  0     1.880    101
            1  0  0  0     1.000    102
            0  1  0  0     1.000    103
            0  0  1  0     1.000    104
            2  0  0  0     2.200    105
            1  1  0  0     2.200    106
            1  0  1  0     2.200    107
            0  2  0  0     2.200    108
            0  1  1  0     2.200    109
            0  0  2  0     2.200    110
            3  0  0  0     3.300    111
            2  1  0  0     3.300    112
            2  0  1  0     3.300    113
            1  2  0  0     3.300    114
            1  1  1  0     3.300    115
            1  0  2  0     3.300    116
            0  3  0  0     3.300    117
            0  2  1  0     3.300    118
            0  1  2  0     3.300    119
            0  0  3  0     3.300    120

 O                                    5
                                  ---------------------------------------------------------------------------
            0  0  0  0     9.800    121
            0  0  0  0     6.800    122
            0  0  0  1     7.580    123
            0  0  0  1     2.880    124
            0  0  0  1     1.720    125
            1  0  0  0     4.080    126
            0  1  0  0     4.080    127
            0  0  1  0     4.080    128
            1  0  0  0     2.080    129
            0  1  0  0     2.080    130
            0  0  1  0     2.080    131
            1  0  0  0     1.120    132
            0  1  0  0     1.120    133
            0  0  1  0     1.120    134
            2  0  0  0     2.000    135
            1  1  0  0     2.000    136
            1  0  1  0     2.000    137
            0  2  0  0     2.000    138
            0  1  1  0     2.000    139
            0  0  2  0     2.000    140
            3  0  0  0     3.000    141
            2  1  0  0     3.000    142
            2  0  1  0     3.000    143
            1  2  0  0     3.000    144
            1  1  1  0     3.000    145
            1  0  2  0     3.000    146
            0  3  0  0     3.000    147
            0  2  1  0     3.000    148
            0  1  2  0     3.000    149
            0  0  3  0     3.000    150

 H                                    6    7
                                  ---------------------------------------------------------------------------
            0  0  0  0     0.690    151  163
            0  0  0  0     0.920    152  164
            0  0  0  0     1.580    153  165
            1  0  0  0     1.250    154  166
            0  1  0  0     1.250    155  167
            0  0  1  0     1.250    156  168
            2  0  0  0     2.500    157  169
            1  1  0  0     2.500    158  170
            1  0  1  0     2.500    159  171
            0  2  0  0     2.500    160  172
            0  1  1  0     2.500    161  173
            0  0  2  0     2.500    162  174

 Total number of charge fitting functions (nprimf)       520
 Total number of Cartesian basis functions (naos)        174
 Total number of Cartesian core functions  (ncos)          0

 ***************************************************************************************************



                                              ***********************
                                              *  T E C H N I C A L  *
                                              ***********************
  



 =============================================================
 P A R A L L E L I Z A T I O N  and  V E C T O R I Z A T I O N
 =============================================================
  
 Nr of parallel processes:                                1
 Maximum vector length in NumInt loops:                 128



 =====================
 S C F   U P D A T E S
 =====================
  
 Max. nr. of cycles:                               300
 Convergence criterion:                              0.0000010000
   secondary criterion:                              0.0010000000

 Mix parameter (when DIIS does not apply):           0.0500000000
 Mixed ADIIS+SDIIS will be used                  
    Max number of expansion vectors:                10
    Pure ADIIS when Max([F,P]) is above              0.1000000000
    Pure SDIIS when Max([F,P]) is below              0.0010000000
 Automatic ElectronSmearing (in case of problematic SCF convergence) disabled



 =================
 P R E C I S I O N  ***  (General: NumInt, NeglectFunctionTails, ...)  ***
 =================
  

 NumInt:           Target precision:                 6.0000000000
 -------           Initial precision:                6.0000000000
                   Min. precision (optimization):    6.0000000000

 Neglect Functions:          Basis functions:        0.1000000000E-07
 ------------------          Fit functions:          0.1000000000E-07



 ===========================
 L I N E A R   S C A L I N G
 ===========================
  

 Cut-off radii density fit:                        0.1000000000E-09
 Overlap cut-off criterion AO matrix elements:     0.1000000000E-07
 Cut-offs for Coulomb potential and fitted density:0.1000000000E-09
 Cut-off criterion for Coulomb multipole terms:    0.1000000000E-09
 Progressive Convergence parameter:                 0.000000000    

 Number of elements of the density matrix on this node (used, total):     15225     15225



 ===========================================
 Numerical Integration : Fuzzy Cells (Becke)
 ===========================================
  
 Becke grid quality: GOOD           
  
 Lebedev angular grid order:             min:  11 max:  31
 Nr. of radial points:                   min:  54 max:  61

 Total nr. of points:      89051
 Nr. of blocks:              696
 Block length:               128
 Nr. of dummy points:         37


 Test of Precision of the Numerical Integration Grid
 ===================================================

 Integral of the Total Core Density:                   0.00000000000000



 ========================
 Density Fitting (zlmFit)
 ========================
  
 ZlmFit Fit Quality: GOOD           
  
 Max L-expansion:                        min:   8 max:   9
 Nr. of radial interpolation points:     min:  78 max: 108



 =====
 S C F  ***  ScaSCF  ***
 =====
  
 Initial density matrix is taken from previous geometry

 CYCLE    1
  ***********************************************************
  ** : orbital data taken from :/tmp/amstmp_optA_kid0.743991602/GO1_GOStep8.rkf
  ***********************************************************
 SCF Error: norm([F,P])=      0.000001759867, max([F,P])=      0.000000264658
 ***** SPIN 1 *****
 orbitals (Q,E):
 ---------------
 A :9...28           ( 1.00    -0.6149)  ( 1.00    -0.4914)  ( 1.00    -0.4472)  ( 1.00    -0.4180)
                     ( 1.00    -0.4122)  ( 1.00    -0.3421)  ( 1.00    -0.3275)  ( 1.00    -0.3265)
                     ( 1.00    -0.2669)  ( 1.00    -0.2667)  ( 0.00    -0.1109)  ( 0.00    -0.0356)
                     ( 0.00    -0.0152)  ( 0.00     0.0184)  ( 0.00     0.0371)  ( 0.00     0.0511)
                     ( 0.00     0.1079)  ( 0.00     0.1195)  ( 0.00     0.1416)  ( 0.00     0.1632)
 ***** SPIN 2 *****
 orbitals (Q,E):
 ---------------
 A :8...27           ( 1.00    -0.7206)  ( 1.00    -0.6076)  ( 1.00    -0.4846)  ( 1.00    -0.4402)
                     ( 1.00    -0.4060)  ( 1.00    -0.4011)  ( 1.00    -0.3416)  ( 1.00    -0.3258)
                     ( 1.00    -0.3201)  ( 1.00    -0.2592)  ( 0.00    -0.2123)  ( 0.00    -0.0904)
                     ( 0.00    -0.0344)  ( 0.00    -0.0126)  ( 0.00     0.0195)  ( 0.00     0.0403)
                     ( 0.00     0.0524)  ( 0.00     0.1091)  ( 0.00     0.1337)  ( 0.00     0.1435)
  
 Spin polar: 1 (Spin_A minus Spin_B electrons)

 CYCLE    2
  SDIIS (wt  0.000):  0.7319  0.2681
 A-DIIS (wt  1.000):  0.8586  0.1414
  DIIS coefficients:  0.8586  0.1414
 SCF Error: norm([F,P])=      0.000004522452, max([F,P])=      0.000000638019
 ***** SPIN 1 *****
 orbitals (Q,E):
 ---------------
 A :9...19           ( 1.00    -0.6149)  ( 1.00    -0.4914)  ( 1.00    -0.4472)  ( 1.00    -0.4180)
                     ( 1.00    -0.4122)  ( 1.00    -0.3421)  ( 1.00    -0.3275)  ( 1.00    -0.3265)
                     ( 1.00    -0.2669)  ( 1.00    -0.2667)  ( 0.00    -0.1109)
 ***** SPIN 2 *****
 orbitals (Q,E):
 ---------------
 A :8...18           ( 1.00    -0.7206)  ( 1.00    -0.6076)  ( 1.00    -0.4846)  ( 1.00    -0.4402)
                     ( 1.00    -0.4060)  ( 1.00    -0.4011)  ( 1.00    -0.3416)  ( 1.00    -0.3258)
                     ( 1.00    -0.3201)  ( 1.00    -0.2592)  ( 0.00    -0.2123)
  
 Spin polar: 1 (Spin_A minus Spin_B electrons)

 SCF CONVERGED

 CYCLE    3
 ***************************************************************************************************



                                                *******************
                                                *  R E S U L T S  *
                                                *******************
  
 *** Using FIT density in Focky
  SDIIS (wt  0.000):  0.4811 -0.0644  0.5833
 A-DIIS (wt  1.000):  0.6667  0.0000  0.3333
  DIIS coefficients:  0.6667  0.0000  0.3333
 SCF Error: norm([F,P])=      0.000001915444, max([F,P])=      0.000000337944


                                   ***** SPIN 1 *****

 Scaled ZORA Orbital Energies, per Irrep and Spin:
 =================================================
                        Occup              E (au)              E (eV)       Diff (eV) with prev. cycle
                        -----      --------------------        ------       --------------------------
 A
               9        1.000     -0.61493295421518E+00       -16.733              -1.12E-06
              10        1.000     -0.49135421152176E+00       -13.370              -3.53E-08
              11        1.000     -0.44721789323420E+00       -12.169               1.50E-08
              12        1.000     -0.41802201006091E+00       -11.375              -1.67E-06
              13        1.000     -0.41223708169446E+00       -11.218              -2.40E-07
              14        1.000     -0.34207414763479E+00        -9.308              -1.51E-06
              15        1.000     -0.32747515746772E+00        -8.911              -1.45E-06
              16        1.000     -0.32652550789933E+00        -8.885              -1.34E-06
              17        1.000     -0.26688432395165E+00        -7.262              -1.32E-06
              18        1.000     -0.26672906694751E+00        -7.258               4.96E-07
              19        0.000     -0.11087992306991E+00        -3.017
              20        0.000     -0.35580514705311E-01        -0.968
              21        0.000     -0.15243833797336E-01        -0.415
              22        0.000      0.18414149925161E-01         0.501
              23        0.000      0.37083466293425E-01         1.009
              24        0.000      0.51050887026555E-01         1.389
              25        0.000      0.10791764050694E+00         2.937
              26        0.000      0.11945636263522E+00         3.251
              27        0.000      0.14156311915748E+00         3.852
              28        0.000      0.16315309157739E+00         4.440
  
 HOMO :       18 A                -0.26672906694751E+00
 LUMO :       19 A                -0.11087992306991E+00
  


                                   ***** SPIN 2 *****

 Scaled ZORA Orbital Energies, per Irrep and Spin:
 =================================================
                        Occup              E (au)              E (eV)       Diff (eV) with prev. cycle
                        -----      --------------------        ------       --------------------------
 A
               8        1.000     -0.72057378191346E+00       -19.608              -5.35E-07
               9        1.000     -0.60762121346245E+00       -16.534              -9.90E-07
              10        1.000     -0.48458678210311E+00       -13.186               1.65E-08
              11        1.000     -0.44021423836385E+00       -11.979               5.57E-08
              12        1.000     -0.40596183286960E+00       -11.047              -3.40E-07
              13        1.000     -0.40111657397919E+00       -10.915              -1.88E-06
              14        1.000     -0.34158302023760E+00        -9.295              -1.43E-06
              15        1.000     -0.32580851074618E+00        -8.866              -1.32E-06
              16        1.000     -0.32012757940097E+00        -8.711              -1.49E-06
              17        1.000     -0.25915360701837E+00        -7.052              -1.43E-06
              18        0.000     -0.21227296346356E+00        -5.776
              19        0.000     -0.90351805650697E-01        -2.459
              20        0.000     -0.34354933497429E-01        -0.935
              21        0.000     -0.12647569347794E-01        -0.344
              22        0.000      0.19549070878938E-01         0.532
              23        0.000      0.40306502598711E-01         1.097
              24        0.000      0.52429178201538E-01         1.427
              25        0.000      0.10906519931496E+00         2.968
              26        0.000      0.13370338562400E+00         3.638
              27        0.000      0.14348142860069E+00         3.904
  
 HOMO :       17 A                -0.25915360701837E+00
 LUMO :       18 A                -0.21227296346356E+00
  


 Orbital Energies, both Spins
 ========================================

 Irrep        no.  (spin)   Occup              E (au)                E (eV)
 ---------------------------------------------------------------------------
 A             1     A       1.00       -0.18832764369259E+02      -512.4656
 A             1      B      1.00       -0.18825004221441E+02      -512.2544
 A             2     A       1.00       -0.14046144358875E+02      -382.2150
 A             2      B      1.00       -0.14046033788595E+02      -382.2120
 A             3      B      1.00       -0.10061385849000E+02      -273.7842
 A             3     A       1.00       -0.10060270916104E+02      -273.7539
 A             4     A       1.00       -0.10001322975102E+02      -272.1498
 A             4      B      1.00       -0.99915370200747E+01      -271.8836
 A             5     A       1.00       -0.99772565363415E+01      -271.4950
 A             5      B      1.00       -0.99772555330317E+01      -271.4949
 A             6     A       1.00       -0.99208468288138E+00       -26.9960
 A             6      B      1.00       -0.97980184969322E+00       -26.6618
 A             7     A       1.00       -0.84700100289470E+00       -23.0481
 A             7      B      1.00       -0.84647500282688E+00       -23.0338
 A             8     A       1.00       -0.73782968641251E+00       -20.0774
 A             8      B      1.00       -0.72057378191346E+00       -19.6078
 A             9     A       1.00       -0.61493295421518E+00       -16.7332
 A             9      B      1.00       -0.60762121346245E+00       -16.5342
 A            10     A       1.00       -0.49135421152176E+00       -13.3704
 A            10      B      1.00       -0.48458678210311E+00       -13.1863
 A            11     A       1.00       -0.44721789323420E+00       -12.1694
 A            11      B      1.00       -0.44021423836385E+00       -11.9788
 A            12     A       1.00       -0.41802201006091E+00       -11.3750
 A            13     A       1.00       -0.41223708169446E+00       -11.2175
 A            12      B      1.00       -0.40596183286960E+00       -11.0468
 A            13      B      1.00       -0.40111657397919E+00       -10.9149
 A            14     A       1.00       -0.34207414763479E+00        -9.3083
 A            14      B      1.00       -0.34158302023760E+00        -9.2949
 A            15     A       1.00       -0.32747515746772E+00        -8.9111
 A            16     A       1.00       -0.32652550789933E+00        -8.8852
 A            15      B      1.00       -0.32580851074618E+00        -8.8657
 A            16      B      1.00       -0.32012757940097E+00        -8.7111
 A            17     A       1.00       -0.26688432395165E+00        -7.2623
 A            18     A       1.00       -0.26672906694751E+00        -7.2581
 A            17      B      1.00       -0.25915360701837E+00        -7.0519
 A            18      B      0.00       -0.21227296346356E+00        -5.7762
 A            19     A       0.00       -0.11087992306991E+00        -3.0172
 A            19      B      0.00       -0.90351805650697E-01        -2.4586
 A            20     A       0.00       -0.35580514705311E-01        -0.9682
 A            20      B      0.00       -0.34354933497429E-01        -0.9348
 A            21     A       0.00       -0.15243833797336E-01        -0.4148
 A            21      B      0.00       -0.12647569347794E-01        -0.3442
 A            22     A       0.00        0.18414149925161E-01         0.5011
 A            22      B      0.00        0.19549070878938E-01         0.5320
 A            23     A       0.00        0.37083466293425E-01         1.0091
 A            23      B      0.00        0.40306502598711E-01         1.0968
 A            24     A       0.00        0.51050887026555E-01         1.3892
 A            24      B      0.00        0.52429178201538E-01         1.4267
 A            25     A       0.00        0.10791764050694E+00         2.9366
 A            25      B      0.00        0.10906519931496E+00         2.9678
 A            26     A       0.00        0.11945636263522E+00         3.2506
 A            26      B      0.00        0.13370338562400E+00         3.6383
 A            27     A       0.00        0.14156311915748E+00         3.8521
 A            27      B      0.00        0.14348142860069E+00         3.9043
 A            28     A       0.00        0.16315309157739E+00         4.4396
 A            28      B      0.00        0.16328306313721E+00         4.4432
 A            29     A       0.00        0.17010622805590E+00         4.6288
 A            29      B      0.00        0.18227951457954E+00         4.9601
 A            30     A       0.00        0.19965147540969E+00         5.4328
 A            31     A       0.00        0.20865795275883E+00         5.6779
 A            30      B      0.00        0.21193943003308E+00         5.7672
 A            31      B      0.00        0.21590922535968E+00         5.8752
 A            32     A       0.00        0.26103935332331E+00         7.1032
 A            32      B      0.00        0.26392489048811E+00         7.1818
 A            33     A       0.00        0.26915029541134E+00         7.3240
 A            33      B      0.00        0.27430985550649E+00         7.4644
 A            34     A       0.00        0.28622514535829E+00         7.7886
 A            34      B      0.00        0.29081114242727E+00         7.9134
 A            35     A       0.00        0.33841379556063E+00         9.2087
 A            35      B      0.00        0.34314086267673E+00         9.3373
 A            36     A       0.00        0.37551548536093E+00        10.2183
 A            36      B      0.00        0.37989776788780E+00        10.3375
 A            37     A       0.00        0.41589789834188E+00        11.3172
 A            38     A       0.00        0.41615787562972E+00        11.3242
 A            37      B      0.00        0.41981533696433E+00        11.4238
 A            38      B      0.00        0.42218518087776E+00        11.4882
 A            39     A       0.00        0.44296667811181E+00        12.0537
 A            39      B      0.00        0.44704334686508E+00        12.1647
 A            40     A       0.00        0.53209448154306E+00        14.4790
 A            40      B      0.00        0.54118521467451E+00        14.7264
 A            41     A       0.00        0.54558600913557E+00        14.8462
 A            41      B      0.00        0.54791200116562E+00        14.9094
 A            42     A       0.00        0.57006711919120E+00        15.5123
 A            43     A       0.00        0.57391302569694E+00        15.6170
 A            42      B      0.00        0.57998245095033E+00        15.7821
 A            43      B      0.00        0.58252797647846E+00        15.8514
 A            44     A       0.00        0.63012226377404E+00        17.1465
 A            44      B      0.00        0.63325255453618E+00        17.2317
 A            45     A       0.00        0.68357925168634E+00        18.6011
 A            45      B      0.00        0.68802830490124E+00        18.7222
 A            46     A       0.00        0.74850195788979E+00        20.3678
 A            46      B      0.00        0.75178696600168E+00        20.4572
 A            47     A       0.00        0.77709494267343E+00        21.1458
 A            47      B      0.00        0.78607542508666E+00        21.3902
 A            48     A       0.00        0.82631756128086E+00        22.4852
 A            48      B      0.00        0.82789745184722E+00        22.5282
 A            49     A       0.00        0.84837293717510E+00        23.0854
 A            49      B      0.00        0.85008756794010E+00        23.1321
 A            50     A       0.00        0.88544980150448E+00        24.0943
 A            50      B      0.00        0.89481547463059E+00        24.3492
 A            51     A       0.00        0.93408953440561E+00        25.4179
 A            51      B      0.00        0.93842917537956E+00        25.5360
 A            52     A       0.00        0.96439741400977E+00        26.2426
 A            52      B      0.00        0.97032700360325E+00        26.4039
 A            53     A       0.00        0.99491567495077E+00        27.0730
 A            53      B      0.00        0.10007888630026E+01        27.2329
 A            54     A       0.00        0.10817321610287E+01        29.4354
 A            54      B      0.00        0.10877509563051E+01        29.5992
 A            55     A       0.00        0.11101276554543E+01        30.2081
 A            56     A       0.00        0.11118342763869E+01        30.2546
 A            55      B      0.00        0.11179329387127E+01        30.4205
 A            56      B      0.00        0.11241146012425E+01        30.5887
 A            57     A       0.00        0.11246995925781E+01        30.6046
 A            57      B      0.00        0.11332857621537E+01        30.8383
 A            58     A       0.00        0.11991890622581E+01        32.6316
 A            58      B      0.00        0.12017395413306E+01        32.7010
 A            59     A       0.00        0.12419924750202E+01        33.7963
 A            60     A       0.00        0.12423984199272E+01        33.8074
 A            59      B      0.00        0.12463805432163E+01        33.9157
 A            60      B      0.00        0.12583699325420E+01        34.2420
 A            61     A       0.00        0.13253382394770E+01        36.0643
 A            61      B      0.00        0.13289871641905E+01        36.1636
 A            62     A       0.00        0.14100956384032E+01        38.3707
 A            62      B      0.00        0.14129976461618E+01        38.4496
 A            63     A       0.00        0.14562625446017E+01        39.6269
 A            63      B      0.00        0.14741261649053E+01        40.1130
 A            64     A       0.00        0.15638230011356E+01        42.5538
 A            65     A       0.00        0.15660862434671E+01        42.6154
 A            64      B      0.00        0.15760201488554E+01        42.8857
 A            65      B      0.00        0.15943399568044E+01        43.3842
 A            66     A       0.00        0.16055261866790E+01        43.6886
 A            67     A       0.00        0.16100033374618E+01        43.8104
 A            66      B      0.00        0.16108886516837E+01        43.8345
 A            67      B      0.00        0.16154976066724E+01        43.9599
 A            68     A       0.00        0.16883421028085E+01        45.9421
 A            68      B      0.00        0.17007756553061E+01        46.2805
 A            69     A       0.00        0.17780911307399E+01        48.3843
 A            69      B      0.00        0.17829610304080E+01        48.5168
 A            70     A       0.00        0.17914196988780E+01        48.7470
 A            70      B      0.00        0.17978931040505E+01        48.9232
 A            71     A       0.00        0.19138388551411E+01        52.0782
 A            71      B      0.00        0.19163334530869E+01        52.1461
 A            72     A       0.00        0.19332380952277E+01        52.6061
 A            72      B      0.00        0.19589368994820E+01        53.3054
 A            73     A       0.00        0.20667341664994E+01        56.2387
 A            73      B      0.00        0.20703518065061E+01        56.3371
 A            74     A       0.00        0.21302195008939E+01        57.9662
 A            74      B      0.00        0.21317840840157E+01        58.0088
 A            75     A       0.00        0.21749053170463E+01        59.1822
 A            75      B      0.00        0.21819226536254E+01        59.3731
 A            76     A       0.00        0.22213618256452E+01        60.4463
 A            77     A       0.00        0.22251109843992E+01        60.5484
 A            76      B      0.00        0.22274350546339E+01        60.6116
 A            77      B      0.00        0.22326578364885E+01        60.7537
 A            78     A       0.00        0.22852359314206E+01        62.1844
 A            78      B      0.00        0.23109718110353E+01        62.8847
 A            79     A       0.00        0.23530225614680E+01        64.0290
 A            79      B      0.00        0.23543106153517E+01        64.0641
 A            80     A       0.00        0.24351962678842E+01        66.2651
 A            80      B      0.00        0.24371484100015E+01        66.3182
 A            81     A       0.00        0.24679557752777E+01        67.1565
 A            81      B      0.00        0.24736342933809E+01        67.3110
 A            82     A       0.00        0.25512751638870E+01        69.4237
 A            82      B      0.00        0.25548839306455E+01        69.5219
 A            83     A       0.00        0.25710369006549E+01        69.9615
 A            83      B      0.00        0.25754197256771E+01        70.0807
 A            84     A       0.00        0.26683816511946E+01        72.6104
 A            84      B      0.00        0.26719043717716E+01        72.7062
 A            85     A       0.00        0.26743046508959E+01        72.7715
 A            85      B      0.00        0.26788664990255E+01        72.8957
 A            86     A       0.00        0.27330850679370E+01        74.3710
 A            86      B      0.00        0.27379064883246E+01        74.5022
 A            87     A       0.00        0.28239045676433E+01        76.8424
 A            87      B      0.00        0.28251736235325E+01        76.8769
 A            88     A       0.00        0.28272610707016E+01        76.9337
 A            88      B      0.00        0.28393516630822E+01        77.2627
 A            89     A       0.00        0.29640811053525E+01        80.6568
 A            89      B      0.00        0.29732954354192E+01        80.9075
 A            90     A       0.00        0.30577486653218E+01        83.2056
 A            90      B      0.00        0.30623450394834E+01        83.3306
 A            91     A       0.00        0.30839271113847E+01        83.9179
 A            91      B      0.00        0.30953207746598E+01        84.2280
 A            92     A       0.00        0.31798140698693E+01        86.5271
 A            92      B      0.00        0.31951864789733E+01        86.9454
 A            93     A       0.00        0.33129268012010E+01        90.1493
 A            94     A       0.00        0.33259565793772E+01        90.5039
[...]
                                    1.27%     1 P:x            11.051  0.00     7 H
                                    1.24%     1 P:y            -9.020  1.33     5 O
                                    1.00%     1 D:xz           33.824  0.00     2 C
      -2.459  0.00    19 A         26.60%     1 P:x            -5.239  0.67     1 C
                                   21.02%     1 P:x            -7.062  1.00     4 N
                                   18.94%     1 P:x            -5.239  0.67     2 C
                                   12.34%     1 P:x            -5.239  0.67     3 C
                                   11.57%     1 P:x            -9.020  1.33     5 O
                                   -2.03%     2 P:x             4.589  0.00     2 C
                                    1.73%     1 P:z            -5.239  0.67     1 C
                                    1.51%     1 P:x            11.051  0.00     7 H
                                    1.36%     1 P:z            -7.062  1.00     4 N
                                   -1.29%     2 P:x             7.649  0.00     4 N
                                    1.23%     1 P:z            -5.239  0.67     2 C
                                    1.12%     1 P:y            -5.239  0.67     1 C
                                   -1.05%     2 P:x             9.437  0.00     5 O
      -0.935  0.00    20 A         28.91%     1 P:z            -5.239  0.67     3 C
                                   25.74%     1 P:z            -7.062  1.00     4 N
                                   16.61%     1 P:y            -7.062  1.00     4 N
                                   16.54%     1 P:y            -5.239  0.67     3 C
                                    6.45%     1 S              -6.532  1.00     7 H
                                   -2.81%     2 P:z             7.649  0.00     4 N
                                    2.39%     1 P:z            -5.239  0.67     2 C
                                    1.81%     1 P:z            -9.020  1.33     5 O
                                   -1.70%     2 P:y             7.649  0.00     4 N
                                   -1.64%     2 S               2.394  0.00     6 H
                                    1.53%     2 P:z             4.589  0.00     1 C
                                    1.47%     2 S             -13.620  2.00     1 C
                                   -1.43%     3 S              10.158  0.00     1 C
                                    1.24%     1 D:z2           33.824  0.00     2 C
                                    1.16%     1 P:z            -5.239  0.67     1 C
                                   -1.05%     2 P:z             4.589  0.00     3 C
                                    1.05%     1 D:z2           33.824  0.00     3 C
                                    1.02%     2 P:z             4.589  0.00     2 C
      -0.344  0.00    21 A         54.69%     2 S               2.394  0.00     6 H
                                   38.88%     1 S              -6.532  1.00     6 H
                                   20.88%     2 S               2.394  0.00     7 H
                                   -7.57%     2 P:z             4.589  0.00     1 C
                                    7.52%     1 S              -6.532  1.00     7 H
                                   -5.65%     3 S              10.158  0.00     1 C
                                   -3.59%     2 P:y             4.589  0.00     1 C
                                   -2.92%     2 P:y             4.589  0.00     3 C
                                   -2.66%     3 S              10.158  0.00     3 C
                                    2.42%     1 P:y            -5.239  0.67     1 C
                                   -2.31%     2 S             -13.620  2.00     3 C
                                   -2.31%     3 S              40.869  0.00     6 H
                                    2.09%     1 P:z            -5.239  0.67     1 C
                                   -1.73%     1 P:y            -5.239  0.67     2 C
                                   -1.70%     3 S              10.158  0.00     2 C
                                   -1.60%     3 S              14.073  0.00     4 N
                                    1.48%     2 P:z             4.589  0.00     3 C
                                   -1.37%     2 S             -13.620  2.00     2 C
                                    1.34%     1 P:z            11.051  0.00     6 H
                                    1.13%     2 S             -13.620  2.00     1 C
       0.532  0.00    22 A         42.84%     2 S               2.394  0.00     7 H
                                   40.45%     1 S              -6.532  1.00     7 H
                                  -35.01%     2 P:z             4.589  0.00     1 C
                                   14.44%     2 P:y             4.589  0.00     2 C
                                   11.49%     1 S              -6.532  1.00     6 H
                                    5.37%     2 P:z             4.589  0.00     2 C
                                    4.55%     2 P:z             4.589  0.00     3 C
                                    4.40%     2 P:y             4.589  0.00     1 C
                                   -3.55%     2 P:x             4.589  0.00     1 C
                                   -3.54%     3 S              10.158  0.00     1 C
                                    3.52%     1 P:z            -5.239  0.67     1 C
                                   -3.42%     3 S              14.073  0.00     4 N
                                    2.85%     2 S             -13.620  2.00     3 C
                                    2.70%     2 S             -13.620  2.00     2 C
                                    2.32%     2 P:y             4.589  0.00     3 C
                                    2.30%     1 P:z            -5.239  0.67     3 C
                                    2.06%     3 S              40.869  0.00     6 H
                                    1.98%     2 P:x             4.589  0.00     2 C
                                    1.44%     3 S              40.869  0.00     7 H
                                    1.21%     2 S             -13.620  2.00     1 C
                                   -1.20%     2 S               2.394  0.00     6 H
                                    1.10%     1 P:y            11.051  0.00     7 H
       1.097  0.00    23 A         41.70%     1 P:x            -5.239  0.67     3 C
                                   22.46%     1 P:x            -5.239  0.67     2 C
                                   21.34%     1 P:x            -7.062  1.00     4 N
                                   -8.73%     2 P:x             4.589  0.00     2 C
                                    6.46%     1 P:x            -9.020  1.33     5 O
                                    5.99%     2 P:x             4.589  0.00     1 C
                                    5.44%     1 P:x            -5.239  0.67     1 C
                                   -5.39%     2 P:x             7.649  0.00     4 N
                                    2.71%     1 P:z            -5.239  0.67     3 C
                                    1.73%     1 P:y            -5.239  0.67     3 C
                                   -1.57%     2 P:x             4.589  0.00     3 C
                                    1.44%     1 P:z            -5.239  0.67     2 C
                                    1.39%     1 P:z            -7.062  1.00     4 N
                                    1.04%     1 P:x            11.051  0.00     6 H
       1.427  0.00    24 A         30.46%     2 P:y             4.589  0.00     1 C
                                   21.86%     1 P:y            -5.239  0.67     1 C
                                   18.55%     2 P:y             4.589  0.00     2 C
                                  -11.24%     3 S              10.158  0.00     2 C
                                   10.56%     1 S              -6.532  1.00     6 H
                                    9.67%     2 S               2.394  0.00     6 H
                                    7.16%     1 S              -6.532  1.00     7 H
                                   -6.28%     3 S              14.073  0.00     4 N
                                    5.92%     2 P:y             4.589  0.00     3 C
                                    5.50%     2 S             -13.620  2.00     2 C
                                   -3.62%     3 S              10.158  0.00     1 C
                                   -3.57%     2 P:z             4.589  0.00     3 C
                                    3.56%     2 S             -13.620  2.00     1 C
                                    3.30%     1 P:y            -5.239  0.67     2 C
                                    3.00%     2 P:z             4.589  0.00     1 C
                                    2.65%     1 P:z            -5.239  0.67     2 C
                                   -1.32%     3 P:y            54.789  0.00     1 C
                                   -1.21%     2 P:x             4.589  0.00     1 C
                                    1.21%     1 P:z            11.051  0.00     6 H
                                    1.12%     1 P:z            -9.020  1.33     5 O
                                    1.09%     3 S              40.869  0.00     6 H
                                   -1.02%     3 P:y            54.789  0.00     2 C

 Energy gradients wrt nuclear displacements
 ==========================================

     Atom      Cartesian (a.u./angstrom)
                 X         Y         Z
 ----------------------------------------
     1 C    -0.000047  0.000285  0.000231
     2 C     0.000012  0.000091 -0.000310
     3 C    -0.000044 -0.000028  0.000019
     4 N     0.000091 -0.000094  0.000099
     5 O    -0.000035 -0.000001  0.000109
     6 H     0.000023 -0.000142 -0.000036
     7 H     0.000000 -0.000112 -0.000112
 ----------------------------------------



 =======================================================================
 Electrostatic potential at the Nuclei due to electrons and other nuclei
 =======================================================================
  
         Atom                  Potential
         ----                  ---------
     1)   C                  14.71833633
     2)   C                  14.64929094
     3)   C                  14.74720010
     4)   N                  18.41538685
     5)   O                  22.37049929
     6)   H                   1.03937608
     7)   H                   1.04172045
 Mulliken charges used for AMS results%charges...


    =====================
     CALCULATION RESULTS
    =====================

Energy (hartree)            -1.63821217

Gradients (hartree/bohr)
  Index   Atom            d/dx            d/dy            d/dz
      1      C   -0.0000247514    0.0001510292    0.0001222109
      2      C    0.0000061986    0.0000482635   -0.0001642265
      3      C   -0.0000233730   -0.0000150729    0.0000101002
      4      N    0.0000483052   -0.0000495620    0.0000526057
      5      O   -0.0000187830   -0.0000006443    0.0000574941
      6      H    0.0000123646   -0.0000749276   -0.0000188840
      7      H    0.0000000389   -0.0000590859   -0.0000593004


--------------
Atomic charges
--------------
  Index   Atom    Charge
      1      C    0.4272
      2      C    0.3650
      3      C    0.0963
      4      N   -0.2168
      5      O   -0.4313
      6      H   -0.1209
      7      H   -0.1195


Dipole moment vector    (Debye):     0.54953007   -3.82757553   -0.91240790
              magnitude (Debye):     3.97300968


-----------------------
Molecular orbitals info
-----------------------
n orbitals:              152
n spin:                    2

Note: only printing virtual orbitals with
      energy smaller than HOMO + 100. eV

                     spin-alpha   spin-beta
HOMO (eV):              -7.2581     -7.0519
LUMO (eV):              -3.0172     -5.7762
HOMO-LUMO gap (eV):      4.2409      1.2757

Smallest gap (eV):       1.2757

          |======= spin-alpha =======|       |======= spin-beta ========|

   Index   Energy (eV)    Occupation          Energy (eV)    Occupation
      96       92.4933         0.000              92.9513         0.000       
      95       92.4341         0.000              92.8618         0.000       
      94       90.5039         0.000              90.7633         0.000       
      93       90.1493         0.000              90.7373         0.000       
      92       86.5271         0.000              86.9454         0.000       
      91       83.9179         0.000              84.2280         0.000       
      90       83.2056         0.000              83.3306         0.000       
      89       80.6568         0.000              80.9075         0.000       
      88       76.9337         0.000              77.2627         0.000       
      87       76.8424         0.000              76.8769         0.000       
      86       74.3710         0.000              74.5022         0.000       
      85       72.7715         0.000              72.8957         0.000       
      84       72.6104         0.000              72.7062         0.000       
      83       69.9615         0.000              70.0807         0.000       
      82       69.4237         0.000              69.5219         0.000       
      81       67.1565         0.000              67.3110         0.000       
      80       66.2651         0.000              66.3182         0.000       
      79       64.0290         0.000              64.0641         0.000       
      78       62.1844         0.000              62.8847         0.000       
      77       60.5484         0.000              60.7537         0.000       
      76       60.4463         0.000              60.6116         0.000       
      75       59.1822         0.000              59.3731         0.000       
      74       57.9662         0.000              58.0088         0.000       
      73       56.2387         0.000              56.3371         0.000       
      72       52.6061         0.000              53.3054         0.000       
      71       52.0782         0.000              52.1461         0.000       
      70       48.7470         0.000              48.9232         0.000       
      69       48.3843         0.000              48.5168         0.000       
      68       45.9421         0.000              46.2805         0.000       
      67       43.8104         0.000              43.9599         0.000       
      66       43.6886         0.000              43.8345         0.000       
      65       42.6154         0.000              43.3842         0.000       
      64       42.5538         0.000              42.8857         0.000       
      63       39.6269         0.000              40.1130         0.000       
      62       38.3707         0.000              38.4496         0.000       
      61       36.0643         0.000              36.1636         0.000       
      60       33.8074         0.000              34.2420         0.000       
      59       33.7963         0.000              33.9157         0.000       
      58       32.6316         0.000              32.7010         0.000       
      57       30.6046         0.000              30.8383         0.000       
      56       30.2546         0.000              30.5887         0.000       
      55       30.2081         0.000              30.4205         0.000       
      54       29.4354         0.000              29.5992         0.000       
      53       27.0730         0.000              27.2329         0.000       
      52       26.2426         0.000              26.4039         0.000       
      51       25.4179         0.000              25.5360         0.000       
      50       24.0943         0.000              24.3492         0.000       
      49       23.0854         0.000              23.1321         0.000       
      48       22.4852         0.000              22.5282         0.000       
      47       21.1458         0.000              21.3902         0.000       
      46       20.3678         0.000              20.4572         0.000       
      45       18.6011         0.000              18.7222         0.000       
      44       17.1465         0.000              17.2317         0.000       
      43       15.6170         0.000              15.8514         0.000       
      42       15.5123         0.000              15.7821         0.000       
      41       14.8462         0.000              14.9094         0.000       
      40       14.4790         0.000              14.7264         0.000       
      39       12.0537         0.000              12.1647         0.000       
      38       11.3242         0.000              11.4882         0.000       
      37       11.3172         0.000              11.4238         0.000       
      36       10.2183         0.000              10.3375         0.000       
      35        9.2087         0.000               9.3373         0.000       
      34        7.7886         0.000               7.9134         0.000       
      33        7.3240         0.000               7.4644         0.000       
      32        7.1032         0.000               7.1818         0.000       
      31        5.6779         0.000               5.8752         0.000       
      30        5.4328         0.000               5.7672         0.000       
      29        4.6288         0.000               4.9601         0.000       
      28        4.4396         0.000               4.4432         0.000       
      27        3.8521         0.000               3.9043         0.000       
      26        3.2506         0.000               3.6383         0.000       
      25        2.9366         0.000               2.9678         0.000       
      24        1.3892         0.000               1.4267         0.000       
      23        1.0091         0.000               1.0968         0.000       
      22        0.5011         0.000               0.5320         0.000       
      21       -0.4148         0.000              -0.3442         0.000       
      20       -0.9682         0.000              -0.9348         0.000       
      19       -3.0172         0.000 < LUMO       -2.4586         0.000       
      18       -7.2581         1.000 < HOMO       -5.7762         0.000 < LUMO
      17       -7.2623         1.000              -7.0519         1.000 < HOMO
      16       -8.8852         1.000              -8.7111         1.000       
      15       -8.9111         1.000              -8.8657         1.000       
      14       -9.3083         1.000              -9.2949         1.000       
      13      -11.2175         1.000             -10.9149         1.000       
      12      -11.3750         1.000             -11.0468         1.000       
      11      -12.1694         1.000             -11.9788         1.000       
      10      -13.3704         1.000             -13.1863         1.000       
       9      -16.7332         1.000             -16.5342         1.000       
       8      -20.0774         1.000             -19.6078         1.000       
       7      -23.0481         1.000             -23.0338         1.000       
       6      -26.9960         1.000             -26.6618         1.000       
       5     -271.4950         1.000            -271.4949         1.000       
       4     -272.1498         1.000            -271.8836         1.000       
       3     -273.7539         1.000            -273.7842         1.000       
       2     -382.2150         1.000            -382.2120         1.000       
       1     -512.4656         1.000            -512.2544         1.000       

AMS application finished. Exiting.
NORMAL TERMINATION
     Total cpu time:     390.11
  Total system time:       2.29
 Total elapsed time:     394.13
