srun: Job 662082 step creation temporarily disabled, retrying (Requested nodes are busy)
srun: Job 662082 step creation still disabled, retrying (Requested nodes are busy)
srun: Job 662082 step creation still disabled, retrying (Requested nodes are busy)
srun: Job 662082 step creation still disabled, retrying (Requested nodes are busy)
srun: Job 662082 step creation still disabled, retrying (Requested nodes are busy)
srun: Job 662082 step creation still disabled, retrying (Requested nodes are busy)
srun: Job 662082 step creation still disabled, retrying (Requested nodes are busy)
srun: Job 662082 step creation still disabled, retrying (Requested nodes are busy)
srun: Job 662082 step creation still disabled, retrying (Requested nodes are busy)
srun: Job 662082 step creation still disabled, retrying (Requested nodes are busy)
srun: Job 662082 step creation still disabled, retrying (Requested nodes are busy)
srun: Job 662082 step creation still disabled, retrying (Requested nodes are busy)
srun: Job 662082 step creation still disabled, retrying (Requested nodes are busy)
srun: Job 662082 step creation still disabled, retrying (Requested nodes are busy)
srun: Job 662082 step creation still disabled, retrying (Requested nodes are busy)
srun: Job 662082 step creation still disabled, retrying (Requested nodes are busy)
srun: Job 662082 step creation still disabled, retrying (Requested nodes are busy)
srun: Job 662082 step creation still disabled, retrying (Requested nodes are busy)
srun: Job 662082 step creation still disabled, retrying (Requested nodes are busy)
srun: Job 662082 step creation still disabled, retrying (Requested nodes are busy)
srun: Job 662082 step creation still disabled, retrying (Requested nodes are busy)
srun: Job 662082 step creation still disabled, retrying (Requested nodes are busy)
srun: Step created for StepId=662082.58

 *******************************************************************************
 *                                                                             *
 *  --------------------------------                                           *
 *   Amsterdam Modeling Suite (AMS)              2026.103                      *
 *  --------------------------------                                           *
 *                                               r260501 2026-05-01 873454b5   *
 *                                                                             *
 *                                                                             *
 *                              =================                              *
 *                              |               |                              *
 *                              |     A M S     |                              *
 *                              |               |                              *
 *                              =================                              *
 *                                                                             *
 *                                                                             *
 *   Online information and documentation:  https://www.scm.com/support/       *
 *   E-mail:  support@scm.com   info@scm.com                                   *
 *                                                                             *
 *   Scientific publications using AMS results must be properly referenced     *
 *   See the User Manuals (or the web site) for recommended citations          *
 *   The terms and conditions of the End User License Agreement apply to       *
 *   the use of AMS, https://www.scm.com/license-terms/                        *
 *                                                                             *
 **********************  x86_64_linux_intel / intelmpi  ************************
 
 Licensed to: Jong-June Jeon / University of Seoul 2026-06-02 13:44:15
 SCM User ID: u30731
  
 AMS 2026.103  RunTime: Jun03-2026 14:12:20  ShM Nodes: 1  Procs: 1

 AMS jobname: c2_fragB_ts
 AMS jobid  : 1456458177

 Start   directory: /gpfs/home1/yeseo1ee/projects/eda-asm-prediction/ADF_800/adf_outputs/batch_002/dipolar_005734/
 Results directory: /gpfs/home1/yeseo1ee/projects/eda-asm-prediction/ADF_800/adf_outputs/batch_002/dipolar_005734/c2_fragB_ts.results/
 Scratch directory: /tmp/amstmp_c2_fragB_ts_kid0.1456458177/

 RNG seed: -556316071 1455329367 1428368709 1093298391 1475122386 -1798372146 -372850044 -1436850696



                      ************************************************************************
                      *  ADF 2026.103  RunTime: Jun03-2026 14:12:20  ShM Nodes: 1  Procs: 1  *
                      ************************************************************************
  

       ****************************
       * SINGLE POINT CALCULATION *
       ****************************

--------
Geometry
--------
Formula: C16H13NO2
Atoms
  Index Symbol   x (angstrom)   y (angstrom)   z (angstrom)
      1      C     1.19079000    -0.49595000     0.55541000
      2      C     2.47668000    -1.22515000     0.53973000
      3      C     3.36772000    -1.09243000    -0.53868000
      4      C     4.56472000    -1.81032000    -0.55420000
      5      C     4.88160000    -2.67641000     0.49687000
      6      C     3.99500000    -2.81769000     1.56951000
      7      C     2.80071000    -2.09657000     1.59383000
      8      O     0.23898000    -0.98652000     1.44000000
      9      C    -0.71806000    -0.00724000     1.62321000
     10      O    -1.74463000    -0.23518000     2.24048000
     11      C    -0.22482000     1.15836000     0.91374000
     12      C    -0.83473000     2.49626000     0.99450000
     13      C    -1.64778000     2.83127000     2.09510000
     14      C    -2.26082000     4.08289000     2.17409000
     15      C    -2.07598000     5.02488000     1.15824000
     16      C    -1.27711000     4.70192000     0.05670000
     17      C    -0.66610000     3.45069000    -0.02910000
     18      N     1.11217000     0.88600000     0.64805000
     19      C     2.01981000     1.77579000    -0.04742000
     20      H     3.11823000    -0.44538000    -1.38010000
     21      H     5.24857000    -1.69998000    -1.39875000
     22      H     5.81568000    -3.24252000     0.47863000
     23      H     4.23564000    -3.49186000     2.39474000
     24      H     2.10929000    -2.20964000     2.42942000
     25      H    -1.79851000     2.10396000     2.89193000
     26      H    -2.88447000     4.32323000     3.03833000
     27      H    -2.55595000     6.00421000     1.22117000
     28      H    -1.13415000     5.42642000    -0.74831000
     29      H    -0.06979000     3.21280000    -0.90931000
     30      H     1.90625000     2.78924000     0.35347000
     31      H     3.05102000     1.44951000     0.12928000
     32      H     1.82736000     1.79255000    -1.13273000

Total System Charge              0.00000


----------------
ADF Engine Input
----------------
 
   Basis
     Type TZ2P
     Core None
   End
   XC
     GGA BLYP
     Dispersion GRIMME3 BJDAMP
   End
   Symmetry NOSYM
   NumericalQuality Normal
   Unrestricted No
   SCF
     Iterations 200
     Converge 1.0e-6
   End
   Save TAPE21
 

 Title: *** (NO TITLE) ***

 *** adf ***



 ===========================
 A T T A C H E D   F I L E S
 ===========================
  



 ===============================
 M O D E L   P A R A M E T E R S
 ===============================
  
 DENSITY FUNCTIONAL POTENTIAL (scf)
    LDA:                               Exchange only                           == Not Default ==
    Gradient Corrections:              Becke88 LYP                             == Not Default ==

 SPIN  (restricted / unrestr.)
    Molecule:                          Restricted                               
    Fragments:                         Restricted                               

 OTHER ASPECTS
    Relativistic Corrections:          scalar (ZORA,MAPA)                       

    Nuclear Charge Density Model:      Point Charge Nuclei                      
    Core Treatment:                    Frozen Orbital(s)                        

    Hyperfine or Zeeman Interaction:   ---                                      

 Settings for Grimme D3 dispersion correction

      damping                        BJ
      s6                          1.000
      s8                          2.700
      a1                          0.430
      a2                          4.236

 Other (technical) parameters

      alpha                      14.000
      version                         4
 


 Fragment File(s)
 ----------------
 C:
         file : /gpfs/home1/yeseo1ee/projects/eda-asm-prediction/ADF_800/adf_outputs/batch_002/dipolar_005734/c2_fragB_ts.results/t21.50BA88D5.C
         jobid: 0
         title: Carbon (TZ2P)
 O:
         file : /gpfs/home1/yeseo1ee/projects/eda-asm-prediction/ADF_800/adf_outputs/batch_002/dipolar_005734/c2_fragB_ts.results/t21.6E90ABAE.O
         jobid: 0
         title: Oxygen (TZ2P)
 N:
         file : /gpfs/home1/yeseo1ee/projects/eda-asm-prediction/ADF_800/adf_outputs/batch_002/dipolar_005734/c2_fragB_ts.results/t21.44EAA48D.N
         jobid: 0
         title: Nitrogen (TZ2P)
 H:
         file : /gpfs/home1/yeseo1ee/projects/eda-asm-prediction/ADF_800/adf_outputs/batch_002/dipolar_005734/c2_fragB_ts.results/t21.6F35CCAB.H
         jobid: 0
         title: Hydrogen (TZ2P)



 ===============
 G E O M E T R Y  ***  3D  Molecule  ***
 ===============
  

 ATOMS
 =====                            X Y Z                    CHARGE
                                (Angstrom)             Nucl     +Core       At.Mass
                       --------------------------    ----------------       -------
    1  C               1.1908   -0.4960    0.5554      6.00      6.00       12.0000
    2  C               2.4767   -1.2251    0.5397      6.00      6.00       12.0000
    3  C               3.3677   -1.0924   -0.5387      6.00      6.00       12.0000
    4  C               4.5647   -1.8103   -0.5542      6.00      6.00       12.0000
    5  C               4.8816   -2.6764    0.4969      6.00      6.00       12.0000
    6  C               3.9950   -2.8177    1.5695      6.00      6.00       12.0000
    7  C               2.8007   -2.0966    1.5938      6.00      6.00       12.0000
    8  O               0.2390   -0.9865    1.4400      8.00      8.00       15.9949
    9  C              -0.7181   -0.0072    1.6232      6.00      6.00       12.0000
   10  O              -1.7446   -0.2352    2.2405      8.00      8.00       15.9949
   11  C              -0.2248    1.1584    0.9137      6.00      6.00       12.0000
   12  C              -0.8347    2.4963    0.9945      6.00      6.00       12.0000
   13  C              -1.6478    2.8313    2.0951      6.00      6.00       12.0000
   14  C              -2.2608    4.0829    2.1741      6.00      6.00       12.0000
   15  C              -2.0760    5.0249    1.1582      6.00      6.00       12.0000
   16  C              -1.2771    4.7019    0.0567      6.00      6.00       12.0000
   17  C              -0.6661    3.4507   -0.0291      6.00      6.00       12.0000
   18  N               1.1122    0.8860    0.6481      7.00      7.00       14.0031
   19  C               2.0198    1.7758   -0.0474      6.00      6.00       12.0000
   20  H               3.1182   -0.4454   -1.3801      1.00      1.00        1.0078
   21  H               5.2486   -1.7000   -1.3987      1.00      1.00        1.0078
   22  H               5.8157   -3.2425    0.4786      1.00      1.00        1.0078
   23  H               4.2356   -3.4919    2.3947      1.00      1.00        1.0078
   24  H               2.1093   -2.2096    2.4294      1.00      1.00        1.0078
   25  H              -1.7985    2.1040    2.8919      1.00      1.00        1.0078
   26  H              -2.8845    4.3232    3.0383      1.00      1.00        1.0078
   27  H              -2.5560    6.0042    1.2212      1.00      1.00        1.0078
   28  H              -1.1341    5.4264   -0.7483      1.00      1.00        1.0078
   29  H              -0.0698    3.2128   -0.9093      1.00      1.00        1.0078
   30  H               1.9062    2.7892    0.3535      1.00      1.00        1.0078
   31  H               3.0510    1.4495    0.1293      1.00      1.00        1.0078
   32  H               1.8274    1.7925   -1.1327      1.00      1.00        1.0078


 FRAGMENTS
 =========                                     Atoms in this Fragment     Cart. coord.s (Angstrom)
                                               -------------------------------------------------------
    1  C                                                 1  C            1.1908   -0.4960    0.5554
    2  C                                                 2  C            2.4767   -1.2251    0.5397
    3  C                                                 3  C            3.3677   -1.0924   -0.5387
    4  C                                                 4  C            4.5647   -1.8103   -0.5542
    5  C                                                 5  C            4.8816   -2.6764    0.4969
    6  C                                                 6  C            3.9950   -2.8177    1.5695
    7  C                                                 7  C            2.8007   -2.0966    1.5938
    8  C                                                 9  C           -0.7181   -0.0072    1.6232
    9  C                                                11  C           -0.2248    1.1584    0.9137
   10  C                                                12  C           -0.8347    2.4963    0.9945
   11  C                                                13  C           -1.6478    2.8313    2.0951
   12  C                                                14  C           -2.2608    4.0829    2.1741
   13  C                                                15  C           -2.0760    5.0249    1.1582
   14  C                                                16  C           -1.2771    4.7019    0.0567
   15  C                                                17  C           -0.6661    3.4507   -0.0291
   16  C                                                19  C            2.0198    1.7758   -0.0474
   17  O                                                 8  O            0.2390   -0.9865    1.4400
   18  O                                                10  O           -1.7446   -0.2352    2.2405
   19  N                                                18  N            1.1122    0.8860    0.6481
   20  H                                                20  H            3.1182   -0.4454   -1.3801
   21  H                                                21  H            5.2486   -1.7000   -1.3987
   22  H                                                22  H            5.8157   -3.2425    0.4786
   23  H                                                23  H            4.2356   -3.4919    2.3947
   24  H                                                24  H            2.1093   -2.2096    2.4294
   25  H                                                25  H           -1.7985    2.1040    2.8919
   26  H                                                26  H           -2.8845    4.3232    3.0383
   27  H                                                27  H           -2.5560    6.0042    1.2212
   28  H                                                28  H           -1.1341    5.4264   -0.7483
   29  H                                                29  H           -0.0698    3.2128   -0.9093
   30  H                                                30  H            1.9062    2.7892    0.3535
   31  H                                                31  H            3.0510    1.4495    0.1293
   32  H                                                32  H            1.8274    1.7925   -1.1327



 =====================================
 S Y M M E T R Y ,   E L E C T R O N S
 =====================================
  
 Symmetry: NOSYM

 Irreducible Representations, including subspecies
 -------------------------------------------------
 A


 Configuration of Valence Electrons
 ==================================
 ( determined in the SCF procedure )

 Total:   132

 Net Charge: 0 (Nuclei minus Electrons)

 Aufbau principle for MO occupations will be applied through SCF cycle no.     100
 Thereafter, the program will assign electrons to MOs that are spatially
 similar to the occupied MOs in a "reference" cycle ("KeepOrbitals").
 The reference cycle is always the PREVIOUS cycle: it will evolve with
 the SCF procedure.
 ***************************************************************************************************



                                      ****************************************
                                      *  B U I L D : (Fragments, Functions)  *
                                      ****************************************
  



 =======
 S F O s  ***  (Symmetrized Fragment Orbitals)  ***
 =======
  
 SFOs are linear combinations of (valence) Fragment Orbitals (FOs), such that the SFOs transform as the
 irreducible representations of the (molecular) symmetry group. Each SFO is therefore characterized by
 an irrep of the molecule and by a few (or only one) generating FOs.
 The SFOs constitute a symmetry-adapted basis for the Fock matrix. The MO eigenvector coefficients in
 this basis provide a direct interpretation of the MOs in terms of Frontier Orbital Theory.

 The SFOs are combined with auxiliary Core Functions (CFs) to ensure orthogonalization on the (frozen)
 Core Orbitals (COs). The Core-orthogonalized SFOs (CSFOs) constitute the true Fock basis.

 The FOs, and hence also the (C)SFOs are combinations of the elementary basis functions (BAS). The basis
 functions that participate in the description of the SFOs depend on the irrep. The indices of the
 involved functions are printed below for each irrep.
 (The complete list of primitive basis functions is printed in another section)

 Total nr. of (C)SFOs (summation over all irreps) :   637

 NOTE: a (C)SFO that is defined as a combination of more than one FO is usually NOT normalized.



                                       === A ===
 Nr. of SFOs :  637
 Cartesian basis functions that participate in this irrep (total number =   726) :
      1     2     3     4     5     6     9    12     7    10
     13     8    11    14    15    16    17    18    19    20
     21    22    23    24    25    26    27    28    29    30
     31    32    33    34    35    36    39    42    37    40
     43    38    41    44    45    46    47    48    49    50
     51    52    53    54    55    56    57    58    59    60
     61    62    63    64    65    66    69    72    67    70
     73    68    71    74    75    76    77    78    79    80
     81    82    83    84    85    86    87    88    89    90
     91    92    93    94    95    96    99   102    97   100
    103    98   101   104   105   106   107   108   109   110
    111   112   113   114   115   116   117   118   119   120
    121   122   123   124   125   126   129   132   127   130
    133   128   131   134   135   136   137   138   139   140
    141   142   143   144   145   146   147   148   149   150
    151   152   153   154   155   156   159   162   157   160
    163   158   161   164   165   166   167   168   169   170
    171   172   173   174   175   176   177   178   179   180
    181   182   183   184   185   186   189   192   187   190
    193   188   191   194   195   196   197   198   199   200
    201   202   203   204   205   206   207   208   209   210
    211   212   213   214   215   216   219   222   217   220
    223   218   221   224   225   226   227   228   229   230
    231   232   233   234   235   236   237   238   239   240
    241   242   243   244   245   246   249   252   247   250
    253   248   251   254   255   256   257   258   259   260
    261   262   263   264   265   266   267   268   269   270
    271   272   273   274   275   276   279   282   277   280
    283   278   281   284   285   286   287   288   289   290
    291   292   293   294   295   296   297   298   299   300
    301   302   303   304   305   306   309   312   307   310
    313   308   311   314   315   316   317   318   319   320
    321   322   323   324   325   326   327   328   329   330
    331   332   333   334   335   336   339   342   337   340
    343   338   341   344   345   346   347   348   349   350
    351   352   353   354   355   356   357   358   359   360
    361   362   363   364   365   366   369   372   367   370
    373   368   371   374   375   376   377   378   379   380
    381   382   383   384   385   386   387   388   389   390
    391   392   393   394   395   396   399   402   397   400
    403   398   401   404   405   406   407   408   409   410
    411   412   413   414   415   416   417   418   419   420
    421   422   423   424   425   426   429   432   427   430
    433   428   431   434   435   436   437   438   439   440
    441   442   443   444   445   446   447   448   449   450
    451   452   453   454   455   456   459   462   457   460
    463   458   461   464   465   466   467   468   469   470
    471   472   473   474   475   476   477   478   479   480
    481   482   483   484   485   486   489   492   487   490
    493   488   491   494   495   496   497   498   499   500
    501   502   503   504   505   506   507   508   509   510
    511   512   513   514   515   516   519   522   517   520
    523   518   521   524   525   526   527   528   529   530
    531   532   533   534   535   536   537   538   539   540
    541   542   543   544   545   546   549   552   547   550
    553   548   551   554   555   556   557   558   559   560
    561   562   563   564   565   566   567   568   569   570
    571   572   573   574   575   576   577   578   579   580
    581   582   583   584   585   586   587   588   589   590
    591   592   593   594   595   596   597   598   599   600
    601   602   603   604   605   606   607   608   609   610
    611   612   613   614   615   616   617   618   619   620
    621   622   623   624   625   626   627   628   629   630
    631   632   633   634   635   636   637   638   639   640
    641   642   643   644   645   646   647   648   649   650
    651   652   653   654   655   656   657   658   659   660
    661   662   663   664   665   666   667   668   669   670
    671   672   673   674   675   676   677   678   679   680
    681   682   683   684   685   686   687   688   689   690
    691   692   693   694   695   696   697   698   699   700
    701   702   703   704   705   706   707   708   709   710
    711   712   713   714   715   716   717   718   719   720
    721   722   723   724   725   726

    SFO  (index         Fragment          Generating    Expansion in Fragment Orbitals
  indx  incl.CFs)   Occup   Orb.Energy   FragmentType  Coeff.   Orbital     on Fragment
 --------------------------------------------------------------------------------------
     1       1      2.000     -10.066 au  C             1.00      1 S               1
                        (    -273.921 eV)
     2       2      2.000      -0.501 au  C             1.00      2 S               1
                        (     -13.620 eV)
     3       3       --         0.373 au  C             1.00      3 S               1
                        (      10.158 eV)
     4       4       --         5.405 au  C             1.00      4 S               1
                        (     147.073 eV)
     5       5       --        49.848 au  C             1.00      5 S               1
                        (    1356.422 eV)
     6       6      0.667      -0.193 au  C             1.00      1 P:x             1
                        (      -5.239 eV)
     7       7       --         0.169 au  C             1.00      2 P:x             1
                        (       4.589 eV)
     8       8       --         2.013 au  C             1.00      3 P:x             1
                        (      54.789 eV)
     9       9      0.667      -0.193 au  C             1.00      1 P:y             1
                        (      -5.239 eV)
    10      10       --         0.169 au  C             1.00      2 P:y             1
                        (       4.589 eV)
    11      11       --         2.013 au  C             1.00      3 P:y             1
                        (      54.789 eV)
    12      12      0.667      -0.193 au  C             1.00      1 P:z             1
                        (      -5.239 eV)
    13      13       --         0.169 au  C             1.00      2 P:z             1
                        (       4.589 eV)
    14      14       --         2.013 au  C             1.00      3 P:z             1
                        (      54.789 eV)
    15      15       --         1.243 au  C             1.00      1 D:z2            1
                        (      33.824 eV)
    16      16       --         1.243 au  C             1.00      1 D:x2-y2         1
                        (      33.824 eV)
    17      17       --         1.243 au  C             1.00      1 D:xy            1
                        (      33.824 eV)
    18      18       --         1.243 au  C             1.00      1 D:xz            1
                        (      33.824 eV)
    19      19       --         1.243 au  C             1.00      1 D:yz            1
                        (      33.824 eV)
    20      20       --         4.016 au  C             1.00      1 F:z3            1
                        (     109.271 eV)
    21      21       --         4.016 au  C             1.00      1 F:z             1
                        (     109.271 eV)
    22      22       --         4.016 au  C             1.00      1 F:xyz           1
                        (     109.271 eV)
    23      23       --         4.016 au  C             1.00      1 F:z2x           1
                        (     109.271 eV)
    24      24       --         4.016 au  C             1.00      1 F:z2y           1
                        (     109.271 eV)
    25      25       --         4.016 au  C             1.00      1 F:x             1
                        (     109.271 eV)
    26      26       --         4.016 au  C             1.00      1 F:y             1
                        (     109.271 eV)
    27      27      2.000     -10.066 au  C             1.00      1 S               2
                        (    -273.921 eV)
    28      28      2.000      -0.501 au  C             1.00      2 S               2
                        (     -13.620 eV)
    29      29       --         0.373 au  C             1.00      3 S               2
                        (      10.158 eV)
    30      30       --         5.405 au  C             1.00      4 S               2
                        (     147.073 eV)
    31      31       --        49.848 au  C             1.00      5 S               2
                        (    1356.422 eV)
    32      32      0.667      -0.193 au  C             1.00      1 P:x             2
                        (      -5.239 eV)
    33      33       --         0.169 au  C             1.00      2 P:x             2
                        (       4.589 eV)
    34      34       --         2.013 au  C             1.00      3 P:x             2
                        (      54.789 eV)
    35      35      0.667      -0.193 au  C             1.00      1 P:y             2
                        (      -5.239 eV)
    36      36       --         0.169 au  C             1.00      2 P:y             2
                        (       4.589 eV)
    37      37       --         2.013 au  C             1.00      3 P:y             2
                        (      54.789 eV)
    38      38      0.667      -0.193 au  C             1.00      1 P:z             2
                        (      -5.239 eV)
    39      39       --         0.169 au  C             1.00      2 P:z             2
                        (       4.589 eV)
    40      40       --         2.013 au  C             1.00      3 P:z             2
                        (      54.789 eV)
    41      41       --         1.243 au  C             1.00      1 D:z2            2
                        (      33.824 eV)
    42      42       --         1.243 au  C             1.00      1 D:x2-y2         2
                        (      33.824 eV)
    43      43       --         1.243 au  C             1.00      1 D:xy            2
                        (      33.824 eV)
    44      44       --         1.243 au  C             1.00      1 D:xz            2
                        (      33.824 eV)
    45      45       --         1.243 au  C             1.00      1 D:yz            2
                        (      33.824 eV)
    46      46       --         4.016 au  C             1.00      1 F:z3            2
                        (     109.271 eV)
    47      47       --         4.016 au  C             1.00      1 F:z             2
                        (     109.271 eV)
    48      48       --         4.016 au  C             1.00      1 F:xyz           2
                        (     109.271 eV)
    49      49       --         4.016 au  C             1.00      1 F:z2x           2
                        (     109.271 eV)
    50      50       --         4.016 au  C             1.00      1 F:z2y           2
                        (     109.271 eV)
    51      51       --         4.016 au  C             1.00      1 F:x             2
                        (     109.271 eV)
    52      52       --         4.016 au  C             1.00      1 F:y             2
                        (     109.271 eV)
    53      53      2.000     -10.066 au  C             1.00      1 S               3
                        (    -273.921 eV)
    54      54      2.000      -0.501 au  C             1.00      2 S               3
                        (     -13.620 eV)
    55      55       --         0.373 au  C             1.00      3 S               3
                        (      10.158 eV)
    56      56       --         5.405 au  C             1.00      4 S               3
                        (     147.073 eV)
    57      57       --        49.848 au  C             1.00      5 S               3
                        (    1356.422 eV)
    58      58      0.667      -0.193 au  C             1.00      1 P:x             3
                        (      -5.239 eV)
    59      59       --         0.169 au  C             1.00      2 P:x             3
                        (       4.589 eV)
    60      60       --         2.013 au  C             1.00      3 P:x             3
                        (      54.789 eV)
    61      61      0.667      -0.193 au  C             1.00      1 P:y             3
                        (      -5.239 eV)
    62      62       --         0.169 au  C             1.00      2 P:y             3
                        (       4.589 eV)
    63      63       --         2.013 au  C             1.00      3 P:y             3
                        (      54.789 eV)
    64      64      0.667      -0.193 au  C             1.00      1 P:z             3
                        (      -5.239 eV)
    65      65       --         0.169 au  C             1.00      2 P:z             3
                        (       4.589 eV)
    66      66       --         2.013 au  C             1.00      3 P:z             3
                        (      54.789 eV)
    67      67       --         1.243 au  C             1.00      1 D:z2            3
                        (      33.824 eV)
    68      68       --         1.243 au  C             1.00      1 D:x2-y2         3
                        (      33.824 eV)
    69      69       --         1.243 au  C             1.00      1 D:xy            3
                        (      33.824 eV)
    70      70       --         1.243 au  C             1.00      1 D:xz            3
                        (      33.824 eV)
    71      71       --         1.243 au  C             1.00      1 D:yz            3
                        (      33.824 eV)
    72      72       --         4.016 au  C             1.00      1 F:z3            3
                        (     109.271 eV)
    73      73       --         4.016 au  C             1.00      1 F:z             3
                        (     109.271 eV)
    74      74       --         4.016 au  C             1.00      1 F:xyz           3
                        (     109.271 eV)
    75      75       --         4.016 au  C             1.00      1 F:z2x           3
                        (     109.271 eV)
    76      76       --         4.016 au  C             1.00      1 F:z2y           3
                        (     109.271 eV)
    77      77       --         4.016 au  C             1.00      1 F:x             3
                        (     109.271 eV)
    78      78       --         4.016 au  C             1.00      1 F:y             3
                        (     109.271 eV)
    79      79      2.000     -10.066 au  C             1.00      1 S               4
                        (    -273.921 eV)
    80      80      2.000      -0.501 au  C             1.00      2 S               4
                        (     -13.620 eV)
    81      81       --         0.373 au  C             1.00      3 S               4
                        (      10.158 eV)
    82      82       --         5.405 au  C             1.00      4 S               4
                        (     147.073 eV)
    83      83       --        49.848 au  C             1.00      5 S               4
                        (    1356.422 eV)
    84      84      0.667      -0.193 au  C             1.00      1 P:x             4
                        (      -5.239 eV)
    85      85       --         0.169 au  C             1.00      2 P:x             4
                        (       4.589 eV)
    86      86       --         2.013 au  C             1.00      3 P:x             4
                        (      54.789 eV)
    87      87      0.667      -0.193 au  C             1.00      1 P:y             4
                        (      -5.239 eV)
    88      88       --         0.169 au  C             1.00      2 P:y             4
                        (       4.589 eV)
    89      89       --         2.013 au  C             1.00      3 P:y             4
                        (      54.789 eV)
    90      90      0.667      -0.193 au  C             1.00      1 P:z             4
                        (      -5.239 eV)
    91      91       --         0.169 au  C             1.00      2 P:z             4
                        (       4.589 eV)
    92      92       --         2.013 au  C             1.00      3 P:z             4
                        (      54.789 eV)
    93      93       --         1.243 au  C             1.00      1 D:z2            4
                        (      33.824 eV)
    94      94       --         1.243 au  C             1.00      1 D:x2-y2         4
                        (      33.824 eV)
    95      95       --         1.243 au  C             1.00      1 D:xy            4
                        (      33.824 eV)
    96      96       --         1.243 au  C             1.00      1 D:xz            4
                        (      33.824 eV)
    97      97       --         1.243 au  C             1.00      1 D:yz            4
                        (      33.824 eV)
    98      98       --         4.016 au  C             1.00      1 F:z3            4
                        (     109.271 eV)
    99      99       --         4.016 au  C             1.00      1 F:z             4
                        (     109.271 eV)
   100     100       --         4.016 au  C             1.00      1 F:xyz           4
                        (     109.271 eV)
   101     101       --         4.016 au  C             1.00      1 F:z2x           4
                        (     109.271 eV)
   102     102       --         4.016 au  C             1.00      1 F:z2y           4
                        (     109.271 eV)
   103     103       --         4.016 au  C             1.00      1 F:x             4
                        (     109.271 eV)
   104     104       --         4.016 au  C             1.00      1 F:y             4
                        (     109.271 eV)
   105     105      2.000     -10.066 au  C             1.00      1 S               5
                        (    -273.921 eV)
   106     106      2.000      -0.501 au  C             1.00      2 S               5
                        (     -13.620 eV)
   107     107       --         0.373 au  C             1.00      3 S               5
                        (      10.158 eV)
   108     108       --         5.405 au  C             1.00      4 S               5
                        (     147.073 eV)
   109     109       --        49.848 au  C             1.00      5 S               5
                        (    1356.422 eV)
   110     110      0.667      -0.193 au  C             1.00      1 P:x             5
                        (      -5.239 eV)
   111     111       --         0.169 au  C             1.00      2 P:x             5
                        (       4.589 eV)
   112     112       --         2.013 au  C             1.00      3 P:x             5
                        (      54.789 eV)
   113     113      0.667      -0.193 au  C             1.00      1 P:y             5
                        (      -5.239 eV)
   114     114       --         0.169 au  C             1.00      2 P:y             5
                        (       4.589 eV)
   115     115       --         2.013 au  C             1.00      3 P:y             5
                        (      54.789 eV)
   116     116      0.667      -0.193 au  C             1.00      1 P:z             5
                        (      -5.239 eV)
   117     117       --         0.169 au  C             1.00      2 P:z             5
                        (       4.589 eV)
   118     118       --         2.013 au  C             1.00      3 P:z             5
                        (      54.789 eV)
   119     119       --         1.243 au  C             1.00      1 D:z2            5
                        (      33.824 eV)
   120     120       --         1.243 au  C             1.00      1 D:x2-y2         5
                        (      33.824 eV)
   121     121       --         1.243 au  C             1.00      1 D:xy            5
                        (      33.824 eV)
   122     122       --         1.243 au  C             1.00      1 D:xz            5
                        (      33.824 eV)
   123     123       --         1.243 au  C             1.00      1 D:yz            5
                        (      33.824 eV)
   124     124       --         4.016 au  C             1.00      1 F:z3            5
                        (     109.271 eV)
   125     125       --         4.016 au  C             1.00      1 F:z             5
                        (     109.271 eV)
   126     126       --         4.016 au  C             1.00      1 F:xyz           5
                        (     109.271 eV)
   127     127       --         4.016 au  C             1.00      1 F:z2x           5
                        (     109.271 eV)
   128     128       --         4.016 au  C             1.00      1 F:z2y           5
                        (     109.271 eV)
   129     129       --         4.016 au  C             1.00      1 F:x             5
                        (     109.271 eV)
   130     130       --         4.016 au  C             1.00      1 F:y             5
                        (     109.271 eV)
   131     131      2.000     -10.066 au  C             1.00      1 S               6
                        (    -273.921 eV)
   132     132      2.000      -0.501 au  C             1.00      2 S               6
                        (     -13.620 eV)
   133     133       --         0.373 au  C             1.00      3 S               6
                        (      10.158 eV)
   134     134       --         5.405 au  C             1.00      4 S               6
                        (     147.073 eV)
   135     135       --        49.848 au  C             1.00      5 S               6
                        (    1356.422 eV)
   136     136      0.667      -0.193 au  C             1.00      1 P:x             6
                        (      -5.239 eV)
   137     137       --         0.169 au  C             1.00      2 P:x             6
                        (       4.589 eV)
   138     138       --         2.013 au  C             1.00      3 P:x             6
                        (      54.789 eV)
   139     139      0.667      -0.193 au  C             1.00      1 P:y             6
                        (      -5.239 eV)
   140     140       --         0.169 au  C             1.00      2 P:y             6
                        (       4.589 eV)
   141     141       --         2.013 au  C             1.00      3 P:y             6
                        (      54.789 eV)
   142     142      0.667      -0.193 au  C             1.00      1 P:z             6
                        (      -5.239 eV)
   143     143       --         0.169 au  C             1.00      2 P:z             6
                        (       4.589 eV)
   144     144       --         2.013 au  C             1.00      3 P:z             6
                        (      54.789 eV)
   145     145       --         1.243 au  C             1.00      1 D:z2            6
                        (      33.824 eV)
   146     146       --         1.243 au  C             1.00      1 D:x2-y2         6
                        (      33.824 eV)
   147     147       --         1.243 au  C             1.00      1 D:xy            6
                        (      33.824 eV)
   148     148       --         1.243 au  C             1.00      1 D:xz            6
                        (      33.824 eV)
   149     149       --         1.243 au  C             1.00      1 D:yz            6
                        (      33.824 eV)
   150     150       --         4.016 au  C             1.00      1 F:z3            6
                        (     109.271 eV)
   151     151       --         4.016 au  C             1.00      1 F:z             6
                        (     109.271 eV)
   152     152       --         4.016 au  C             1.00      1 F:xyz           6
                        (     109.271 eV)
   153     153       --         4.016 au  C             1.00      1 F:z2x           6
                        (     109.271 eV)
   154     154       --         4.016 au  C             1.00      1 F:z2y           6
                        (     109.271 eV)
   155     155       --         4.016 au  C             1.00      1 F:x             6
                        (     109.271 eV)
   156     156       --         4.016 au  C             1.00      1 F:y             6
                        (     109.271 eV)
   157     157      2.000     -10.066 au  C             1.00      1 S               7
                        (    -273.921 eV)
   158     158      2.000      -0.501 au  C             1.00      2 S               7
                        (     -13.620 eV)
   159     159       --         0.373 au  C             1.00      3 S               7
                        (      10.158 eV)
   160     160       --         5.405 au  C             1.00      4 S               7
                        (     147.073 eV)
   161     161       --        49.848 au  C             1.00      5 S               7
                        (    1356.422 eV)
   162     162      0.667      -0.193 au  C             1.00      1 P:x             7
                        (      -5.239 eV)
   163     163       --         0.169 au  C             1.00      2 P:x             7
                        (       4.589 eV)
   164     164       --         2.013 au  C             1.00      3 P:x             7
                        (      54.789 eV)
   165     165      0.667      -0.193 au  C             1.00      1 P:y             7
                        (      -5.239 eV)
   166     166       --         0.169 au  C             1.00      2 P:y             7
                        (       4.589 eV)
   167     167       --         2.013 au  C             1.00      3 P:y             7
                        (      54.789 eV)
   168     168      0.667      -0.193 au  C             1.00      1 P:z             7
                        (      -5.239 eV)
   169     169       --         0.169 au  C             1.00      2 P:z             7
                        (       4.589 eV)
   170     170       --         2.013 au  C             1.00      3 P:z             7
                        (      54.789 eV)
   171     171       --         1.243 au  C             1.00      1 D:z2            7
                        (      33.824 eV)
   172     172       --         1.243 au  C             1.00      1 D:x2-y2         7
                        (      33.824 eV)
   173     173       --         1.243 au  C             1.00      1 D:xy            7
                        (      33.824 eV)
   174     174       --         1.243 au  C             1.00      1 D:xz            7
                        (      33.824 eV)
   175     175       --         1.243 au  C             1.00      1 D:yz            7
                        (      33.824 eV)
   176     176       --         4.016 au  C             1.00      1 F:z3            7
                        (     109.271 eV)
   177     177       --         4.016 au  C             1.00      1 F:z             7
                        (     109.271 eV)
   178     178       --         4.016 au  C             1.00      1 F:xyz           7
                        (     109.271 eV)
   179     179       --         4.016 au  C             1.00      1 F:z2x           7
                        (     109.271 eV)
   180     180       --         4.016 au  C             1.00      1 F:z2y           7
                        (     109.271 eV)
   181     181       --         4.016 au  C             1.00      1 F:x             7
                        (     109.271 eV)
   182     182       --         4.016 au  C             1.00      1 F:y             7
                        (     109.271 eV)
   183     183      2.000     -10.066 au  C             1.00      1 S               8
                        (    -273.921 eV)
   184     184      2.000      -0.501 au  C             1.00      2 S               8
                        (     -13.620 eV)
   185     185       --         0.373 au  C             1.00      3 S               8
                        (      10.158 eV)
   186     186       --         5.405 au  C             1.00      4 S               8
                        (     147.073 eV)
   187     187       --        49.848 au  C             1.00      5 S               8
                        (    1356.422 eV)
   188     188      0.667      -0.193 au  C             1.00      1 P:x             8
                        (      -5.239 eV)
   189     189       --         0.169 au  C             1.00      2 P:x             8
                        (       4.589 eV)
   190     190       --         2.013 au  C             1.00      3 P:x             8
                        (      54.789 eV)
   191     191      0.667      -0.193 au  C             1.00      1 P:y             8
                        (      -5.239 eV)
   192     192       --         0.169 au  C             1.00      2 P:y             8
                        (       4.589 eV)
   193     193       --         2.013 au  C             1.00      3 P:y             8
                        (      54.789 eV)
   194     194      0.667      -0.193 au  C             1.00      1 P:z             8
                        (      -5.239 eV)
   195     195       --         0.169 au  C             1.00      2 P:z             8
                        (       4.589 eV)
   196     196       --         2.013 au  C             1.00      3 P:z             8
                        (      54.789 eV)
   197     197       --         1.243 au  C             1.00      1 D:z2            8
                        (      33.824 eV)
   198     198       --         1.243 au  C             1.00      1 D:x2-y2         8
                        (      33.824 eV)
   199     199       --         1.243 au  C             1.00      1 D:xy            8
                        (      33.824 eV)
   200     200       --         1.243 au  C             1.00      1 D:xz            8
                        (      33.824 eV)
   201     201       --         1.243 au  C             1.00      1 D:yz            8
                        (      33.824 eV)
   202     202       --         4.016 au  C             1.00      1 F:z3            8
                        (     109.271 eV)
   203     203       --         4.016 au  C             1.00      1 F:z             8
                        (     109.271 eV)
   204     204       --         4.016 au  C             1.00      1 F:xyz           8
                        (     109.271 eV)
   205     205       --         4.016 au  C             1.00      1 F:z2x           8
                        (     109.271 eV)
   206     206       --         4.016 au  C             1.00      1 F:z2y           8
                        (     109.271 eV)
   207     207       --         4.016 au  C             1.00      1 F:x             8
                        (     109.271 eV)
   208     208       --         4.016 au  C             1.00      1 F:y             8
                        (     109.271 eV)
   209     209      2.000     -10.066 au  C             1.00      1 S               9
                        (    -273.921 eV)
   210     210      2.000      -0.501 au  C             1.00      2 S               9
                        (     -13.620 eV)
   211     211       --         0.373 au  C             1.00      3 S               9
                        (      10.158 eV)
   212     212       --         5.405 au  C             1.00      4 S               9
                        (     147.073 eV)
   213     213       --        49.848 au  C             1.00      5 S               9
                        (    1356.422 eV)
   214     214      0.667      -0.193 au  C             1.00      1 P:x             9
                        (      -5.239 eV)
   215     215       --         0.169 au  C             1.00      2 P:x             9
                        (       4.589 eV)
   216     216       --         2.013 au  C             1.00      3 P:x             9
                        (      54.789 eV)
   217     217      0.667      -0.193 au  C             1.00      1 P:y             9
                        (      -5.239 eV)
   218     218       --         0.169 au  C             1.00      2 P:y             9
                        (       4.589 eV)
   219     219       --         2.013 au  C             1.00      3 P:y             9
                        (      54.789 eV)
   220     220      0.667      -0.193 au  C             1.00      1 P:z             9
                        (      -5.239 eV)
   221     221       --         0.169 au  C             1.00      2 P:z             9
                        (       4.589 eV)
   222     222       --         2.013 au  C             1.00      3 P:z             9
                        (      54.789 eV)
   223     223       --         1.243 au  C             1.00      1 D:z2            9
                        (      33.824 eV)
   224     224       --         1.243 au  C             1.00      1 D:x2-y2         9
                        (      33.824 eV)
   225     225       --         1.243 au  C             1.00      1 D:xy            9
                        (      33.824 eV)
   226     226       --         1.243 au  C             1.00      1 D:xz            9
                        (      33.824 eV)
   227     227       --         1.243 au  C             1.00      1 D:yz            9
                        (      33.824 eV)
   228     228       --         4.016 au  C             1.00      1 F:z3            9
                        (     109.271 eV)
   229     229       --         4.016 au  C             1.00      1 F:z             9
                        (     109.271 eV)
   230     230       --         4.016 au  C             1.00      1 F:xyz           9
                        (     109.271 eV)
   231     231       --         4.016 au  C             1.00      1 F:z2x           9
                        (     109.271 eV)
   232     232       --         4.016 au  C             1.00      1 F:z2y           9
                        (     109.271 eV)
   233     233       --         4.016 au  C             1.00      1 F:x             9
                        (     109.271 eV)
   234     234       --         4.016 au  C             1.00      1 F:y             9
                        (     109.271 eV)
   235     235      2.000     -10.066 au  C             1.00      1 S              10
                        (    -273.921 eV)
   236     236      2.000      -0.501 au  C             1.00      2 S              10
                        (     -13.620 eV)
   237     237       --         0.373 au  C             1.00      3 S              10
                        (      10.158 eV)
   238     238       --         5.405 au  C             1.00      4 S              10
                        (     147.073 eV)
   239     239       --        49.848 au  C             1.00      5 S              10
                        (    1356.422 eV)
   240     240      0.667      -0.193 au  C             1.00      1 P:x            10
                        (      -5.239 eV)
   241     241       --         0.169 au  C             1.00      2 P:x            10
                        (       4.589 eV)
   242     242       --         2.013 au  C             1.00      3 P:x            10
                        (      54.789 eV)
   243     243      0.667      -0.193 au  C             1.00      1 P:y            10
                        (      -5.239 eV)
   244     244       --         0.169 au  C             1.00      2 P:y            10
                        (       4.589 eV)
   245     245       --         2.013 au  C             1.00      3 P:y            10
                        (      54.789 eV)
   246     246      0.667      -0.193 au  C             1.00      1 P:z            10
                        (      -5.239 eV)
   247     247       --         0.169 au  C             1.00      2 P:z            10
                        (       4.589 eV)
   248     248       --         2.013 au  C             1.00      3 P:z            10
                        (      54.789 eV)
   249     249       --         1.243 au  C             1.00      1 D:z2           10
                        (      33.824 eV)
   250     250       --         1.243 au  C             1.00      1 D:x2-y2        10
                        (      33.824 eV)
   251     251       --         1.243 au  C             1.00      1 D:xy           10
                        (      33.824 eV)
   252     252       --         1.243 au  C             1.00      1 D:xz           10
                        (      33.824 eV)
   253     253       --         1.243 au  C             1.00      1 D:yz           10
                        (      33.824 eV)
   254     254       --         4.016 au  C             1.00      1 F:z3           10
                        (     109.271 eV)
   255     255       --         4.016 au  C             1.00      1 F:z            10
                        (     109.271 eV)
   256     256       --         4.016 au  C             1.00      1 F:xyz          10
                        (     109.271 eV)
   257     257       --         4.016 au  C             1.00      1 F:z2x          10
                        (     109.271 eV)
   258     258       --         4.016 au  C             1.00      1 F:z2y          10
                        (     109.271 eV)
   259     259       --         4.016 au  C             1.00      1 F:x            10
                        (     109.271 eV)
   260     260       --         4.016 au  C             1.00      1 F:y            10
                        (     109.271 eV)
   261     261      2.000     -10.066 au  C             1.00      1 S              11
                        (    -273.921 eV)
   262     262      2.000      -0.501 au  C             1.00      2 S              11
                        (     -13.620 eV)
   263     263       --         0.373 au  C             1.00      3 S              11
                        (      10.158 eV)
   264     264       --         5.405 au  C             1.00      4 S              11
                        (     147.073 eV)
   265     265       --        49.848 au  C             1.00      5 S              11
                        (    1356.422 eV)
   266     266      0.667      -0.193 au  C             1.00      1 P:x            11
                        (      -5.239 eV)
   267     267       --         0.169 au  C             1.00      2 P:x            11
                        (       4.589 eV)
   268     268       --         2.013 au  C             1.00      3 P:x            11
                        (      54.789 eV)
   269     269      0.667      -0.193 au  C             1.00      1 P:y            11
                        (      -5.239 eV)
   270     270       --         0.169 au  C             1.00      2 P:y            11
                        (       4.589 eV)
   271     271       --         2.013 au  C             1.00      3 P:y            11
                        (      54.789 eV)
   272     272      0.667      -0.193 au  C             1.00      1 P:z            11
                        (      -5.239 eV)
   273     273       --         0.169 au  C             1.00      2 P:z            11
                        (       4.589 eV)
   274     274       --         2.013 au  C             1.00      3 P:z            11
                        (      54.789 eV)
   275     275       --         1.243 au  C             1.00      1 D:z2           11
                        (      33.824 eV)
   276     276       --         1.243 au  C             1.00      1 D:x2-y2        11
                        (      33.824 eV)
   277     277       --         1.243 au  C             1.00      1 D:xy           11
                        (      33.824 eV)
   278     278       --         1.243 au  C             1.00      1 D:xz           11
                        (      33.824 eV)
   279     279       --         1.243 au  C             1.00      1 D:yz           11
                        (      33.824 eV)
   280     280       --         4.016 au  C             1.00      1 F:z3           11
                        (     109.271 eV)
   281     281       --         4.016 au  C             1.00      1 F:z            11
                        (     109.271 eV)
   282     282       --         4.016 au  C             1.00      1 F:xyz          11
                        (     109.271 eV)
   283     283       --         4.016 au  C             1.00      1 F:z2x          11
                        (     109.271 eV)
   284     284       --         4.016 au  C             1.00      1 F:z2y          11
                        (     109.271 eV)
   285     285       --         4.016 au  C             1.00      1 F:x            11
                        (     109.271 eV)
   286     286       --         4.016 au  C             1.00      1 F:y            11
                        (     109.271 eV)
   287     287      2.000     -10.066 au  C             1.00      1 S              12
                        (    -273.921 eV)
   288     288      2.000      -0.501 au  C             1.00      2 S              12
                        (     -13.620 eV)
   289     289       --         0.373 au  C             1.00      3 S              12
                        (      10.158 eV)
   290     290       --         5.405 au  C             1.00      4 S              12
                        (     147.073 eV)
   291     291       --        49.848 au  C             1.00      5 S              12
                        (    1356.422 eV)
   292     292      0.667      -0.193 au  C             1.00      1 P:x            12
                        (      -5.239 eV)
   293     293       --         0.169 au  C             1.00      2 P:x            12
                        (       4.589 eV)
   294     294       --         2.013 au  C             1.00      3 P:x            12
                        (      54.789 eV)
   295     295      0.667      -0.193 au  C             1.00      1 P:y            12
                        (      -5.239 eV)
   296     296       --         0.169 au  C             1.00      2 P:y            12
                        (       4.589 eV)
   297     297       --         2.013 au  C             1.00      3 P:y            12
                        (      54.789 eV)
   298     298      0.667      -0.193 au  C             1.00      1 P:z            12
                        (      -5.239 eV)
   299     299       --         0.169 au  C             1.00      2 P:z            12
                        (       4.589 eV)
   300     300       --         2.013 au  C             1.00      3 P:z            12
                        (      54.789 eV)
   301     301       --         1.243 au  C             1.00      1 D:z2           12
                        (      33.824 eV)
   302     302       --         1.243 au  C             1.00      1 D:x2-y2        12
                        (      33.824 eV)
   303     303       --         1.243 au  C             1.00      1 D:xy           12
                        (      33.824 eV)
   304     304       --         1.243 au  C             1.00      1 D:xz           12
                        (      33.824 eV)
   305     305       --         1.243 au  C             1.00      1 D:yz           12
                        (      33.824 eV)
   306     306       --         4.016 au  C             1.00      1 F:z3           12
                        (     109.271 eV)
   307     307       --         4.016 au  C             1.00      1 F:z            12
                        (     109.271 eV)
   308     308       --         4.016 au  C             1.00      1 F:xyz          12
                        (     109.271 eV)
   309     309       --         4.016 au  C             1.00      1 F:z2x          12
                        (     109.271 eV)
   310     310       --         4.016 au  C             1.00      1 F:z2y          12
                        (     109.271 eV)
   311     311       --         4.016 au  C             1.00      1 F:x            12
                        (     109.271 eV)
   312     312       --         4.016 au  C             1.00      1 F:y            12
                        (     109.271 eV)
   313     313      2.000     -10.066 au  C             1.00      1 S              13
                        (    -273.921 eV)
   314     314      2.000      -0.501 au  C             1.00      2 S              13
                        (     -13.620 eV)
   315     315       --         0.373 au  C             1.00      3 S              13
                        (      10.158 eV)
   316     316       --         5.405 au  C             1.00      4 S              13
                        (     147.073 eV)
   317     317       --        49.848 au  C             1.00      5 S              13
                        (    1356.422 eV)
   318     318      0.667      -0.193 au  C             1.00      1 P:x            13
                        (      -5.239 eV)
   319     319       --         0.169 au  C             1.00      2 P:x            13
                        (       4.589 eV)
   320     320       --         2.013 au  C             1.00      3 P:x            13
                        (      54.789 eV)
   321     321      0.667      -0.193 au  C             1.00      1 P:y            13
                        (      -5.239 eV)
   322     322       --         0.169 au  C             1.00      2 P:y            13
                        (       4.589 eV)
   323     323       --         2.013 au  C             1.00      3 P:y            13
                        (      54.789 eV)
   324     324      0.667      -0.193 au  C             1.00      1 P:z            13
                        (      -5.239 eV)
   325     325       --         0.169 au  C             1.00      2 P:z            13
                        (       4.589 eV)
   326     326       --         2.013 au  C             1.00      3 P:z            13
                        (      54.789 eV)
   327     327       --         1.243 au  C             1.00      1 D:z2           13
                        (      33.824 eV)
   328     328       --         1.243 au  C             1.00      1 D:x2-y2        13
                        (      33.824 eV)
   329     329       --         1.243 au  C             1.00      1 D:xy           13
                        (      33.824 eV)
   330     330       --         1.243 au  C             1.00      1 D:xz           13
                        (      33.824 eV)
   331     331       --         1.243 au  C             1.00      1 D:yz           13
                        (      33.824 eV)
   332     332       --         4.016 au  C             1.00      1 F:z3           13
                        (     109.271 eV)
   333     333       --         4.016 au  C             1.00      1 F:z            13
                        (     109.271 eV)
   334     334       --         4.016 au  C             1.00      1 F:xyz          13
                        (     109.271 eV)
   335     335       --         4.016 au  C             1.00      1 F:z2x          13
                        (     109.271 eV)
   336     336       --         4.016 au  C             1.00      1 F:z2y          13
                        (     109.271 eV)
   337     337       --         4.016 au  C             1.00      1 F:x            13
                        (     109.271 eV)
   338     338       --         4.016 au  C             1.00      1 F:y            13
                        (     109.271 eV)
   339     339      2.000     -10.066 au  C             1.00      1 S              14
                        (    -273.921 eV)
   340     340      2.000      -0.501 au  C             1.00      2 S              14
                        (     -13.620 eV)
   341     341       --         0.373 au  C             1.00      3 S              14
                        (      10.158 eV)
   342     342       --         5.405 au  C             1.00      4 S              14
                        (     147.073 eV)
   343     343       --        49.848 au  C             1.00      5 S              14
                        (    1356.422 eV)
   344     344      0.667      -0.193 au  C             1.00      1 P:x            14
                        (      -5.239 eV)
   345     345       --         0.169 au  C             1.00      2 P:x            14
                        (       4.589 eV)
   346     346       --         2.013 au  C             1.00      3 P:x            14
                        (      54.789 eV)
   347     347      0.667      -0.193 au  C             1.00      1 P:y            14
                        (      -5.239 eV)
   348     348       --         0.169 au  C             1.00      2 P:y            14
                        (       4.589 eV)
   349     349       --         2.013 au  C             1.00      3 P:y            14
                        (      54.789 eV)
   350     350      0.667      -0.193 au  C             1.00      1 P:z            14
                        (      -5.239 eV)
   351     351       --         0.169 au  C             1.00      2 P:z            14
                        (       4.589 eV)
   352     352       --         2.013 au  C             1.00      3 P:z            14
                        (      54.789 eV)
   353     353       --         1.243 au  C             1.00      1 D:z2           14
                        (      33.824 eV)
   354     354       --         1.243 au  C             1.00      1 D:x2-y2        14
                        (      33.824 eV)
   355     355       --         1.243 au  C             1.00      1 D:xy           14
                        (      33.824 eV)
   356     356       --         1.243 au  C             1.00      1 D:xz           14
                        (      33.824 eV)
   357     357       --         1.243 au  C             1.00      1 D:yz           14
                        (      33.824 eV)
   358     358       --         4.016 au  C             1.00      1 F:z3           14
                        (     109.271 eV)
   359     359       --         4.016 au  C             1.00      1 F:z            14
                        (     109.271 eV)
   360     360       --         4.016 au  C             1.00      1 F:xyz          14
                        (     109.271 eV)
   361     361       --         4.016 au  C             1.00      1 F:z2x          14
                        (     109.271 eV)
   362     362       --         4.016 au  C             1.00      1 F:z2y          14
                        (     109.271 eV)
   363     363       --         4.016 au  C             1.00      1 F:x            14
                        (     109.271 eV)
   364     364       --         4.016 au  C             1.00      1 F:y            14
                        (     109.271 eV)
   365     365      2.000     -10.066 au  C             1.00      1 S              15
                        (    -273.921 eV)
   366     366      2.000      -0.501 au  C             1.00      2 S              15
                        (     -13.620 eV)
   367     367       --         0.373 au  C             1.00      3 S              15
                        (      10.158 eV)
   368     368       --         5.405 au  C             1.00      4 S              15
                        (     147.073 eV)
   369     369       --        49.848 au  C             1.00      5 S              15
                        (    1356.422 eV)
   370     370      0.667      -0.193 au  C             1.00      1 P:x            15
                        (      -5.239 eV)
   371     371       --         0.169 au  C             1.00      2 P:x            15
                        (       4.589 eV)
   372     372       --         2.013 au  C             1.00      3 P:x            15
                        (      54.789 eV)
   373     373      0.667      -0.193 au  C             1.00      1 P:y            15
                        (      -5.239 eV)
   374     374       --         0.169 au  C             1.00      2 P:y            15
                        (       4.589 eV)
   375     375       --         2.013 au  C             1.00      3 P:y            15
                        (      54.789 eV)
   376     376      0.667      -0.193 au  C             1.00      1 P:z            15
                        (      -5.239 eV)
   377     377       --         0.169 au  C             1.00      2 P:z            15
                        (       4.589 eV)
   378     378       --         2.013 au  C             1.00      3 P:z            15
                        (      54.789 eV)
   379     379       --         1.243 au  C             1.00      1 D:z2           15
                        (      33.824 eV)
   380     380       --         1.243 au  C             1.00      1 D:x2-y2        15
                        (      33.824 eV)
   381     381       --         1.243 au  C             1.00      1 D:xy           15
                        (      33.824 eV)
   382     382       --         1.243 au  C             1.00      1 D:xz           15
                        (      33.824 eV)
   383     383       --         1.243 au  C             1.00      1 D:yz           15
                        (      33.824 eV)
   384     384       --         4.016 au  C             1.00      1 F:z3           15
                        (     109.271 eV)
   385     385       --         4.016 au  C             1.00      1 F:z            15
                        (     109.271 eV)
   386     386       --         4.016 au  C             1.00      1 F:xyz          15
                        (     109.271 eV)
   387     387       --         4.016 au  C             1.00      1 F:z2x          15
                        (     109.271 eV)
   388     388       --         4.016 au  C             1.00      1 F:z2y          15
                        (     109.271 eV)
   389     389       --         4.016 au  C             1.00      1 F:x            15
                        (     109.271 eV)
   390     390       --         4.016 au  C             1.00      1 F:y            15
                        (     109.271 eV)
   391     391      2.000     -10.066 au  C             1.00      1 S              16
                        (    -273.921 eV)
   392     392      2.000      -0.501 au  C             1.00      2 S              16
                        (     -13.620 eV)
   393     393       --         0.373 au  C             1.00      3 S              16
                        (      10.158 eV)
   394     394       --         5.405 au  C             1.00      4 S              16
                        (     147.073 eV)
   395     395       --        49.848 au  C             1.00      5 S              16
                        (    1356.422 eV)
   396     396      0.667      -0.193 au  C             1.00      1 P:x            16
                        (      -5.239 eV)
   397     397       --         0.169 au  C             1.00      2 P:x            16
                        (       4.589 eV)
   398     398       --         2.013 au  C             1.00      3 P:x            16
                        (      54.789 eV)
   399     399      0.667      -0.193 au  C             1.00      1 P:y            16
                        (      -5.239 eV)
   400     400       --         0.169 au  C             1.00      2 P:y            16
                        (       4.589 eV)
   401     401       --         2.013 au  C             1.00      3 P:y            16
                        (      54.789 eV)
   402     402      0.667      -0.193 au  C             1.00      1 P:z            16
                        (      -5.239 eV)
   403     403       --         0.169 au  C             1.00      2 P:z            16
                        (       4.589 eV)
   404     404       --         2.013 au  C             1.00      3 P:z            16
                        (      54.789 eV)
   405     405       --         1.243 au  C             1.00      1 D:z2           16
                        (      33.824 eV)
   406     406       --         1.243 au  C             1.00      1 D:x2-y2        16
                        (      33.824 eV)
   407     407       --         1.243 au  C             1.00      1 D:xy           16
                        (      33.824 eV)
   408     408       --         1.243 au  C             1.00      1 D:xz           16
                        (      33.824 eV)
   409     409       --         1.243 au  C             1.00      1 D:yz           16
                        (      33.824 eV)
   410     410       --         4.016 au  C             1.00      1 F:z3           16
                        (     109.271 eV)
   411     411       --         4.016 au  C             1.00      1 F:z            16
                        (     109.271 eV)
   412     412       --         4.016 au  C             1.00      1 F:xyz          16
                        (     109.271 eV)
   413     413       --         4.016 au  C             1.00      1 F:z2x          16
                        (     109.271 eV)
   414     414       --         4.016 au  C             1.00      1 F:z2y          16
                        (     109.271 eV)
   415     415       --         4.016 au  C             1.00      1 F:x            16
                        (     109.271 eV)
   416     416       --         4.016 au  C             1.00      1 F:y            16
                        (     109.271 eV)
   417     417      2.000     -18.941 au  O             1.00      1 S              17
                        (    -515.403 eV)
   418     418      2.000      -0.876 au  O             1.00      2 S              17
                        (     -23.838 eV)
   419     419       --         0.791 au  O             1.00      3 S              17
                        (      21.524 eV)
   420     420       --        13.422 au  O             1.00      4 S              17
                        (     365.226 eV)
   421     421       --       121.561 au  O             1.00      5 S              17
                        (    3307.838 eV)
   422     422      1.333      -0.331 au  O             1.00      1 P:x            17
                        (      -9.020 eV)
   423     423       --         0.347 au  O             1.00      2 P:x            17
                        (       9.437 eV)
   424     424       --         3.820 au  O             1.00      3 P:x            17
                        (     103.939 eV)
   425     425      1.333      -0.331 au  O             1.00      1 P:y            17
                        (      -9.020 eV)
   426     426       --         0.347 au  O             1.00      2 P:y            17
                        (       9.437 eV)
   427     427       --         3.820 au  O             1.00      3 P:y            17
                        (     103.939 eV)
   428     428      1.333      -0.331 au  O             1.00      1 P:z            17
                        (      -9.020 eV)
   429     429       --         0.347 au  O             1.00      2 P:z            17
                        (       9.437 eV)
   430     430       --         3.820 au  O             1.00      3 P:z            17
                        (     103.939 eV)
   431     431       --         1.071 au  O             1.00      1 D:z2           17
                        (      29.134 eV)
   432     432       --         1.071 au  O             1.00      1 D:x2-y2        17
                        (      29.134 eV)
   433     433       --         1.071 au  O             1.00      1 D:xy           17
                        (      29.134 eV)
   434     434       --         1.071 au  O             1.00      1 D:xz           17
                        (      29.134 eV)
   435     435       --         1.071 au  O             1.00      1 D:yz           17
                        (      29.134 eV)
   436     436       --         3.359 au  O             1.00      1 F:z3           17
                        (      91.410 eV)
   437     437       --         3.359 au  O             1.00      1 F:z            17
                        (      91.410 eV)
   438     438       --         3.359 au  O             1.00      1 F:xyz          17
                        (      91.410 eV)
   439     439       --         3.359 au  O             1.00      1 F:z2x          17
                        (      91.410 eV)
   440     440       --         3.359 au  O             1.00      1 F:z2y          17
                        (      91.410 eV)
   441     441       --         3.359 au  O             1.00      1 F:x            17
                        (      91.410 eV)
   442     442       --         3.359 au  O             1.00      1 F:y            17
                        (      91.410 eV)
   443     443      2.000     -18.941 au  O             1.00      1 S              18
                        (    -515.403 eV)
   444     444      2.000      -0.876 au  O             1.00      2 S              18
                        (     -23.838 eV)
   445     445       --         0.791 au  O             1.00      3 S              18
[...]
    22)   H                   1.09385460
    23)   H                   1.09429970
    24)   H                   1.09613236
    25)   H                   1.11326223
    26)   H                   1.10593726
    27)   H                   1.10365782
    28)   H                   1.10106765
    29)   H                   1.09505575
    30)   H                   1.06716102
    31)   H                   1.06807590
    32)   H                   1.06481924
 Mulliken charges used for AMS results%charges...


    =====================
     CALCULATION RESULTS
    =====================

Energy (hartree)            -7.45873645


--------------
Atomic charges
--------------
  Index   Atom    Charge
      1      C    0.3941
      2      C   -0.0724
      3      C    0.2245
      4      C    0.2238
      5      C    0.2106
      6      C    0.2165
      7      C    0.2440
      8      O   -0.4934
      9      C    0.6332
     10      O   -0.5729
     11      C    0.0347
     12      C   -0.0769
     13      C    0.2528
     14      C    0.2118
     15      C    0.2088
     16      C    0.2206
     17      C    0.2169
     18      N   -0.2378
     19      C    0.8233
     20      H   -0.2083
     21      H   -0.2211
     22      H   -0.2079
     23      H   -0.2126
     24      H   -0.1884
     25      H   -0.1781
     26      H   -0.2185
     27      H   -0.2129
     28      H   -0.2281
     29      H   -0.2133
     30      H   -0.1934
     31      H   -0.2002
     32      H   -0.1795


Dipole moment vector    (Debye):     5.29868917    2.46028138   -2.62356233
              magnitude (Debye):     6.40407454


-----------------------
Molecular orbitals info
-----------------------
n orbitals:              637
n spin:                    1

Note: only printing virtual orbitals with
      energy smaller than HOMO + 100. eV

HOMO (eV):              -4.5489
LUMO (eV):              -3.0647
HOMO-LUMO gap (eV):      1.4842

   Index   Energy (eV)    Occupation
     405       95.4056         0.000       
     404       95.1084         0.000       
     403       94.9615         0.000       
     402       94.6427         0.000       
     401       94.3397         0.000       
     400       94.1373         0.000       
     399       93.7674         0.000       
     398       93.5084         0.000       
     397       93.3125         0.000       
     396       93.1220         0.000       
     395       92.6897         0.000       
     394       92.5037         0.000       
     393       92.1958         0.000       
     392       91.7174         0.000       
     391       91.3906         0.000       
     390       91.3744         0.000       
     389       90.9456         0.000       
     388       90.5729         0.000       
     387       90.4002         0.000       
     386       90.0523         0.000       
     385       89.5902         0.000       
     384       89.3235         0.000       
     383       89.0150         0.000       
     382       88.3847         0.000       
     381       88.1073         0.000       
     380       87.6117         0.000       
     379       87.3828         0.000       
     378       86.6134         0.000       
     377       86.4761         0.000       
     376       86.2306         0.000       
     375       85.9653         0.000       
     374       85.7509         0.000       
     373       85.5295         0.000       
     372       85.0684         0.000       
     371       84.4734         0.000       
     370       83.9540         0.000       
     369       83.5118         0.000       
     368       83.0657         0.000       
     367       82.8950         0.000       
     366       82.6120         0.000       
     365       82.2504         0.000       
     364       81.8558         0.000       
     363       81.4871         0.000       
     362       80.9707         0.000       
     361       80.7125         0.000       
     360       80.4490         0.000       
     359       80.1871         0.000       
     358       80.0784         0.000       
     357       79.9612         0.000       
     356       79.6081         0.000       
     355       79.1055         0.000       
     354       78.9044         0.000       
     353       78.7700         0.000       
     352       78.4015         0.000       
     351       77.7030         0.000       
     350       77.5200         0.000       
     349       76.9787         0.000       
     348       76.4393         0.000       
     347       75.7903         0.000       
     346       75.5994         0.000       
     345       75.5346         0.000       
     344       75.0456         0.000       
     343       74.9319         0.000       
     342       74.6785         0.000       
     341       74.0967         0.000       
     340       73.8323         0.000       
     339       73.7568         0.000       
     338       73.2706         0.000       
     337       72.7006         0.000       
     336       72.6413         0.000       
     335       72.3973         0.000       
     334       72.0421         0.000       
     333       71.5828         0.000       
     332       71.2261         0.000       
     331       71.0006         0.000       
     330       70.0263         0.000       
     329       69.5717         0.000       
     328       69.2109         0.000       
     327       68.3975         0.000       
     326       68.1309         0.000       
     325       67.7940         0.000       
     324       67.5619         0.000       
     323       67.0911         0.000       
     322       66.8235         0.000       
     321       66.1391         0.000       
     320       65.4138         0.000       
     319       65.1332         0.000       
     318       65.0300         0.000       
     317       64.5444         0.000       
     316       64.4446         0.000       
     315       64.2353         0.000       
     314       64.0926         0.000       
     313       63.9125         0.000       
     312       63.4953         0.000       
     311       63.2059         0.000       
     310       62.9824         0.000       
     309       62.5671         0.000       
     308       62.3001         0.000       
     307       62.0037         0.000       
     306       61.5223         0.000       
     305       61.3882         0.000       
     304       60.7875         0.000       
     303       60.6568         0.000       
     302       60.1409         0.000       
     301       59.6891         0.000       
     300       59.1833         0.000       
     299       58.1385         0.000       
     298       57.8559         0.000       
     297       56.8358         0.000       
     296       56.6050         0.000       
     295       56.2888         0.000       
     294       56.0678         0.000       
     293       55.6303         0.000       
     292       55.4364         0.000       
     291       55.2873         0.000       
     290       54.9206         0.000       
     289       54.4157         0.000       
     288       54.1437         0.000       
     287       53.8900         0.000       
     286       53.3708         0.000       
     285       53.1547         0.000       
     284       52.7470         0.000       
     283       52.6472         0.000       
     282       51.9581         0.000       
     281       51.7022         0.000       
     280       51.2191         0.000       
     279       50.6844         0.000       
     278       50.6128         0.000       
     277       50.4170         0.000       
     276       50.2961         0.000       
     275       50.1223         0.000       
     274       49.9122         0.000       
     273       49.8712         0.000       
     272       49.4783         0.000       
     271       49.4276         0.000       
     270       48.8476         0.000       
     269       48.7878         0.000       
     268       48.4274         0.000       
     267       47.9151         0.000       
     266       47.6112         0.000       
     265       46.4899         0.000       
     264       45.8091         0.000       
     263       45.6925         0.000       
     262       45.3940         0.000       
     261       44.8754         0.000       
     260       44.6392         0.000       
     259       44.1599         0.000       
     258       44.1223         0.000       
     257       43.7570         0.000       
     256       42.6026         0.000       
     255       42.4706         0.000       
     254       42.2434         0.000       
     253       42.1776         0.000       
     252       41.4488         0.000       
     251       41.2524         0.000       
     250       40.7022         0.000       
     249       40.5108         0.000       
     248       40.1193         0.000       
     247       39.8214         0.000       
     246       39.4238         0.000       
     245       39.3000         0.000       
     244       38.9657         0.000       
     243       38.7260         0.000       
     242       38.5520         0.000       
     241       38.3097         0.000       
     240       38.1699         0.000       
     239       37.9179         0.000       
     238       37.6182         0.000       
     237       37.5131         0.000       
     236       36.9791         0.000       
     235       36.9313         0.000       
     234       36.6148         0.000       
     233       36.3089         0.000       
     232       36.0081         0.000       
     231       35.8778         0.000       
     230       35.6702         0.000       
     229       35.3347         0.000       
     228       35.2126         0.000       
     227       35.0493         0.000       
     226       34.4024         0.000       
     225       34.3171         0.000       
     224       34.0696         0.000       
     223       33.2418         0.000       
     222       33.1234         0.000       
     221       32.9142         0.000       
     220       32.1208         0.000       
     219       31.9517         0.000       
     218       31.7987         0.000       
     217       31.2520         0.000       
     216       30.8392         0.000       
     215       30.4085         0.000       
     214       30.2532         0.000       
     213       29.9452         0.000       
     212       29.5609         0.000       
     211       29.4329         0.000       
     210       29.3817         0.000       
     209       29.3050         0.000       
     208       28.9261         0.000       
     207       28.6639         0.000       
     206       28.3687         0.000       
     205       28.2037         0.000       
     204       28.0160         0.000       
     203       27.7158         0.000       
     202       27.6654         0.000       
     201       27.3572         0.000       
     200       27.2229         0.000       
     199       26.9849         0.000       
     198       26.8533         0.000       
     197       26.6034         0.000       
     196       26.4642         0.000       
     195       25.6012         0.000       
     194       25.4010         0.000       
     193       25.0409         0.000       
     192       25.0312         0.000       
     191       24.6428         0.000       
     190       24.1099         0.000       
     189       23.7126         0.000       
     188       23.6091         0.000       
     187       23.2861         0.000       
     186       23.2152         0.000       
     185       22.8296         0.000       
     184       22.5339         0.000       
     183       22.2907         0.000       
     182       22.2122         0.000       
     181       21.5783         0.000       
     180       21.4079         0.000       
     179       21.1646         0.000       
     178       20.6450         0.000       
     177       20.6047         0.000       
     176       20.3747         0.000       
     175       20.2637         0.000       
     174       20.0093         0.000       
     173       19.4700         0.000       
     172       19.3902         0.000       
     171       19.3051         0.000       
     170       18.7774         0.000       
     169       18.2479         0.000       
     168       17.9147         0.000       
     167       17.8706         0.000       
     166       17.7563         0.000       
     165       17.4866         0.000       
     164       17.2735         0.000       
     163       17.2488         0.000       
     162       17.1260         0.000       
     161       16.4016         0.000       
     160       16.2883         0.000       
     159       16.1805         0.000       
     158       15.4838         0.000       
     157       15.3574         0.000       
     156       15.2938         0.000       
     155       14.8410         0.000       
     154       14.7553         0.000       
     153       14.3980         0.000       
     152       14.1766         0.000       
     151       13.8479         0.000       
     150       13.5165         0.000       
     149       13.3224         0.000       
     148       12.7509         0.000       
     147       12.5783         0.000       
     146       12.3927         0.000       
     145       11.8699         0.000       
     144       11.8183         0.000       
     143       11.5351         0.000       
     142       11.3889         0.000       
     141       11.1537         0.000       
     140       10.9685         0.000       
     139       10.6760         0.000       
     138       10.6156         0.000       
     137       10.4063         0.000       
     136       10.2196         0.000       
     135       10.0833         0.000       
     134        9.8658         0.000       
     133        9.6671         0.000       
     132        9.5603         0.000       
     131        9.3467         0.000       
     130        9.3173         0.000       
     129        9.2220         0.000       
     128        9.0212         0.000       
     127        8.8578         0.000       
     126        8.7943         0.000       
     125        8.6857         0.000       
     124        8.4730         0.000       
     123        8.3663         0.000       
     122        8.2362         0.000       
     121        8.0761         0.000       
     120        8.0286         0.000       
     119        7.8788         0.000       
     118        7.7435         0.000       
     117        7.6652         0.000       
     116        7.4071         0.000       
     115        7.2516         0.000       
     114        6.9700         0.000       
     113        6.8201         0.000       
     112        6.5719         0.000       
     111        6.4701         0.000       
     110        6.2824         0.000       
     109        6.1481         0.000       
     108        5.9967         0.000       
     107        5.8096         0.000       
     106        5.5539         0.000       
     105        5.3553         0.000       
     104        5.2556         0.000       
     103        5.1443         0.000       
     102        5.0977         0.000       
     101        4.9984         0.000       
     100        4.8432         0.000       
      99        4.7848         0.000       
      98        4.5379         0.000       
      97        4.4485         0.000       
      96        4.2861         0.000       
      95        4.2372         0.000       
      94        3.9078         0.000       
      93        3.8739         0.000       
      92        3.5515         0.000       
      91        3.4771         0.000       
      90        3.1118         0.000       
      89        2.9203         0.000       
      88        2.6148         0.000       
      87        2.5186         0.000       
      86        2.2342         0.000       
      85        2.1597         0.000       
      84        1.8538         0.000       
      83        1.7691         0.000       
      82        1.3552         0.000       
      81        1.1557         0.000       
      80        1.1061         0.000       
      79        0.8670         0.000       
      78        0.7870         0.000       
      77        0.4954         0.000       
      76        0.4654         0.000       
      75        0.3601         0.000       
      74        0.0758         0.000       
      73       -0.2237         0.000       
      72       -0.5856         0.000       
      71       -1.2475         0.000       
      70       -1.2832         0.000       
      69       -1.3998         0.000       
      68       -1.6222         0.000       
      67       -3.0647         0.000 < LUMO
      66       -4.5489         2.000 < HOMO
      65       -5.9924         2.000       
      64       -6.3605         2.000       
      63       -6.6111         2.000       
      62       -6.6748         2.000       
      61       -6.8396         2.000       
      60       -7.9578         2.000       
      59       -8.3285         2.000       
      58       -8.5678         2.000       
      57       -8.6246         2.000       
      56       -8.8080         2.000       
      55       -8.9288         2.000       
      54       -9.1044         2.000       
      53       -9.4619         2.000       
      52       -9.5087         2.000       
      51      -10.0417         2.000       
      50      -10.2343         2.000       
      49      -10.4548         2.000       
      48      -10.5947         2.000       
      47      -10.7231         2.000       
      46      -10.8037         2.000       
      45      -10.9655         2.000       
      44      -11.2087         2.000       
      43      -11.4476         2.000       
      42      -11.6194         2.000       
      41      -11.8849         2.000       
      40      -12.3881         2.000       
      39      -12.6466         2.000       
      38      -12.9420         2.000       
      37      -13.4313         2.000       
      36      -14.4889         2.000       
      35      -14.7550         2.000       
      34      -14.9581         2.000       
      33      -15.1234         2.000       
      32      -15.5872         2.000       
      31      -15.9771         2.000       
      30      -17.6469         2.000       
      29      -18.4444         2.000       
      28      -18.7721         2.000       
      27      -18.7938         2.000       
      26      -19.2649         2.000       
      25      -19.8267         2.000       
      24      -21.3225         2.000       
      23      -21.6873         2.000       
      22      -24.5968         2.000       
      21      -25.2553         2.000       
      20      -28.3529         2.000       
      19     -270.0778         2.000       
      18     -270.1446         2.000       
      17     -270.1733         2.000       
      16     -270.2400         2.000       
      15     -270.3069         2.000       
      14     -270.4657         2.000       
      13     -270.4702         2.000       
      12     -270.4843         2.000       
      11     -270.5322         2.000       
      10     -270.6167         2.000       
       9     -270.7106         2.000       
       8     -270.9948         2.000       
       7     -271.2666         2.000       
       6     -271.8589         2.000       
       5     -272.8018         2.000       
       4     -272.8142         2.000       
       3     -384.3718         2.000       
       2     -510.3567         2.000       
       1     -513.2570         2.000       

AMS application finished. Exiting.
NORMAL TERMINATION
     Total cpu time:     186.72
  Total system time:       0.80
 Total elapsed time:     188.90
NORMAL TERMINATION
