srun: Job 662082 step creation temporarily disabled, retrying (Requested nodes are busy)
srun: Job 662082 step creation still disabled, retrying (Requested nodes are busy)
srun: Job 662082 step creation still disabled, retrying (Requested nodes are busy)
srun: Job 662082 step creation still disabled, retrying (Requested nodes are busy)
srun: Job 662082 step creation still disabled, retrying (Requested nodes are busy)
srun: Job 662082 step creation still disabled, retrying (Requested nodes are busy)
srun: Job 662082 step creation still disabled, retrying (Requested nodes are busy)
srun: Job 662082 step creation still disabled, retrying (Requested nodes are busy)
srun: Job 662082 step creation still disabled, retrying (Requested nodes are busy)
srun: Step created for StepId=662082.57

 *******************************************************************************
 *                                                                             *
 *  --------------------------------                                           *
 *   Amsterdam Modeling Suite (AMS)              2026.103                      *
 *  --------------------------------                                           *
 *                                               r260501 2026-05-01 873454b5   *
 *                                                                             *
 *                                                                             *
 *                              =================                              *
 *                              |               |                              *
 *                              |     A M S     |                              *
 *                              |               |                              *
 *                              =================                              *
 *                                                                             *
 *                                                                             *
 *   Online information and documentation:  https://www.scm.com/support/       *
 *   E-mail:  support@scm.com   info@scm.com                                   *
 *                                                                             *
 *   Scientific publications using AMS results must be properly referenced     *
 *   See the User Manuals (or the web site) for recommended citations          *
 *   The terms and conditions of the End User License Agreement apply to       *
 *   the use of AMS, https://www.scm.com/license-terms/                        *
 *                                                                             *
 **********************  x86_64_linux_intel / intelmpi  ************************
 
 Licensed to: Jong-June Jeon / University of Seoul 2026-06-02 13:44:15
 SCM User ID: u30731
  
 AMS 2026.103  RunTime: Jun03-2026 13:28:18  ShM Nodes: 1  Procs: 1

 AMS jobname: c5_fragB_opt
 AMS jobid  : 571182512

 Start   directory: /gpfs/home1/yeseo1ee/projects/eda-asm-prediction/ADF_800/adf_outputs/batch_002/dipolar_005734/
 Results directory: /gpfs/home1/yeseo1ee/projects/eda-asm-prediction/ADF_800/adf_outputs/batch_002/dipolar_005734/c5_fragB_opt.results/
 Scratch directory: /tmp/amstmp_c5_fragB_opt_kid0.571182512/

 RNG seed: 2078572272 1298080066 -1578373811 1811897145 23635765 -1604550540 1729362722 1609745938



                      ************************************************************************
                      *  ADF 2026.103  RunTime: Jun03-2026 13:28:18  ShM Nodes: 1  Procs: 1  *
                      ************************************************************************
  

       ***************************
       *  GEOMETRY OPTIMIZATION  *
       ***************************

Optimization Method                    Quasi Newton
Optimization Coordinates               Delocalized Coordinates
Optimize lattice                       F
 
 ------------------------------------------------------
 Convergence criteria (Hartree,Angstrom)
 ------------------------------------------------------
 Maximum gradient               0.000100000000
 Maximum rms gradient           0.000066666667
 Maximum step allowed           0.010000000000
 Maximum rms step allowed       0.006666666667
 Maximum energy change allowe   0.000320000000
 Maximum stress energy allowe   0.000500000000
 
Initial model Hessian                  Automatic Hessian
 
------------------------------------
Quasi-Newton Optimizer Parameters
------------------------------------
Hessian Update Method                  BFGS
Maximum number of steps                  200
First GDIIS cycle                          0
Maximum GDIIS vectors                      0
Trust radius (bohr)                        0.200000
Trust radius varies                        T
Constraints converged at all steps         T
Use projector                              T
 
 Rigid motions settings for: old optimizer
 Atomic rotations (x,y,z):     T T T
 Atomic translations (x,y,z):  T T T
 Tolerance:                  1.000000000000000E-006

--------
Geometry
--------
Formula: C16H13NO2
Atoms
  Index Symbol   x (angstrom)   y (angstrom)   z (angstrom)
      1      C     1.19079000    -0.49595000     0.55541000
      2      C     2.47668000    -1.22515000     0.53973000
      3      C     3.36772000    -1.09243000    -0.53868000
      4      C     4.56472000    -1.81032000    -0.55420000
      5      C     4.88160000    -2.67641000     0.49687000
      6      C     3.99500000    -2.81769000     1.56951000
      7      C     2.80071000    -2.09657000     1.59383000
      8      O     0.23898000    -0.98652000     1.44000000
      9      C    -0.71806000    -0.00724000     1.62321000
     10      O    -1.74463000    -0.23518000     2.24048000
     11      C    -0.22482000     1.15836000     0.91374000
     12      C    -0.83473000     2.49626000     0.99450000
     13      C    -1.64778000     2.83127000     2.09510000
     14      C    -2.26082000     4.08289000     2.17409000
     15      C    -2.07598000     5.02488000     1.15824000
     16      C    -1.27711000     4.70192000     0.05670000
     17      C    -0.66610000     3.45069000    -0.02910000
     18      N     1.11217000     0.88600000     0.64805000
     19      C     2.01981000     1.77579000    -0.04742000
     20      H     3.11823000    -0.44538000    -1.38010000
     21      H     5.24857000    -1.69998000    -1.39875000
     22      H     5.81568000    -3.24252000     0.47863000
     23      H     4.23564000    -3.49186000     2.39474000
     24      H     2.10929000    -2.20964000     2.42942000
     25      H    -1.79851000     2.10396000     2.89193000
     26      H    -2.88447000     4.32323000     3.03833000
     27      H    -2.55595000     6.00421000     1.22117000
     28      H    -1.13415000     5.42642000    -0.74831000
     29      H    -0.06979000     3.21280000    -0.90931000
     30      H     1.90625000     2.78924000     0.35347000
     31      H     3.05102000     1.44951000     0.12928000
     32      H     1.82736000     1.79255000    -1.13273000

Total System Charge              0.00000


----------------
ADF Engine Input
----------------
 
   Basis
     Type TZ2P
     Core None
   End
   XC
     GGA BLYP
     Dispersion GRIMME3 BJDAMP
   End
   Symmetry NOSYM
   NumericalQuality Normal
   Unrestricted No
   SCF
     Iterations 200
     Converge 1.0e-6
   End
   Save TAPE21
 

 Title: *** (NO TITLE) ***

 Using automatic Hessian for delocalized coordinates.
 *** GO1_GOStep1 ***

 Energy gradients wrt nuclear displacements
 ==========================================

     Atom      Cartesian (a.u./angstrom)
                 X         Y         Z
 ----------------------------------------
     1 C    -0.094665  0.011998 -0.090329
     2 C     0.020779 -0.009392  0.007285
     3 C    -0.005691 -0.001092  0.008980
     4 C    -0.005007 -0.003133  0.006523
     5 C    -0.008770  0.004696  0.000010
     6 C     0.000741  0.002793 -0.004682
     7 C     0.000953  0.012291 -0.010120
     8 O    -0.023827  0.035212  0.058194
     9 C     0.043959 -0.036741  0.002946
    10 O     0.011556 -0.000612 -0.009771
    11 C     0.008868 -0.057205 -0.078317
    12 C    -0.011845  0.018258  0.007281
    13 C     0.008453  0.000468 -0.011458
    14 C     0.001639  0.002462 -0.004534
    15 C     0.004214 -0.009512  0.000793
    16 C    -0.002835 -0.005110  0.006010
    17 C    -0.002296 -0.005040  0.006687
    18 N     0.066589  0.049770  0.096802
    19 C    -0.024492 -0.021792  0.008469
    20 H     0.000063  0.003822 -0.002589
    21 H     0.002949  0.000841 -0.003706
    22 H     0.004535 -0.002650  0.000192
    23 H     0.001031 -0.003363  0.003696
    24 H    -0.003166 -0.000931  0.004618
    25 H    -0.000621 -0.001303  0.005421
    26 H    -0.003026  0.001211  0.003852
    27 H    -0.002363  0.004614  0.000725
    28 H     0.001032  0.002938 -0.003443
    29 H     0.003667 -0.000006 -0.002022
    30 H     0.003784  0.004855  0.000868
    31 H     0.004710  0.002224  0.000754
    32 H    -0.000919 -0.000570 -0.009135
 ----------------------------------------
 
----------------------------------------------------------------------
Geometry Convergence after Step   1       (Hartree/Angstrom,Angstrom)
----------------------------------------------------------------------
current energy                               -7.45873645 Hartree
energy change                      -7.45873645     0.00032000    F
constrained gradient max            0.09680132     0.00010000    F
constrained gradient rms            0.02403521     0.00006667    F
gradient max                        0.09680132
gradient rms                        0.02403521
cart. step max                      0.05617634     0.01000000    F
cart. step rms                      0.02207448     0.00666667    F
 

--------
Geometry
--------
Formula: C16H13NO2
Atoms
  Index Symbol   x (angstrom)   y (angstrom)   z (angstrom)
      1      C     1.21069787    -0.51322021     0.55953978
      2      C     2.49666501    -1.23828509     0.55033838
      3      C     3.39671042    -1.09963494    -0.52514916
      4      C     4.59808891    -1.81169017    -0.53903573
      5      C     4.91415403    -2.68239249     0.50966917
      6      C     4.02096157    -2.83373336     1.57723224
      7      C     2.82224912    -2.11894237     1.60188126
      8      O     0.22639957    -1.00182385     1.40471161
      9      C    -0.75601857    -0.01236773     1.60420180
     10      O    -1.78790879    -0.24759242     2.21982429
     11      C    -0.25607197     1.16415394     0.91743864
     12      C    -0.84792897     2.50554030     1.00212161
     13      C    -1.65691963     2.84802681     2.10686527
     14      C    -2.25481172     4.10686172     2.18857159
     15      C    -2.06228654     5.05173975     1.17416540
     16      C    -1.26984544     4.72279065     0.06875389
     17      C    -0.67351334     3.46396945    -0.02143532
     18      N     1.07989827     0.86826613     0.62351441
     19      C     1.97845923     1.76751548    -0.08776403
     20      H     3.14878230    -0.45192901    -1.36434511
     21      H     5.28402264    -1.69458432    -1.37851607
     22      H     5.84899178    -3.24326577     0.49300322
     23      H     4.26042255    -3.51050590     2.39798706
     24      H     2.12940369    -2.24060529     2.43214735
     25      H    -1.81414513     2.11987208     2.89900053
     26      H    -2.87299449     4.35128076     3.05307439
     27      H    -2.53060514     6.03415913     1.24071051
     28      H    -1.12234284     5.44632180    -0.73381199
     29      H    -0.08539499     3.22153822    -0.90412652
     30      H     1.85007366     2.77905052     0.30869873
     31      H     3.01147379     1.45125552     0.08704825
     32      H     1.78065315     1.77537065    -1.16848546

Total System Charge              0.00000

 *** GO1_GOStep2 ***

 Energy gradients wrt nuclear displacements
 ==========================================

     Atom      Cartesian (a.u./angstrom)
                 X         Y         Z
 ----------------------------------------
     1 C    -0.048396 -0.013769 -0.093435
     2 C     0.015190 -0.008499  0.009285
     3 C    -0.003612 -0.000503  0.004771
     4 C    -0.001966 -0.002445  0.002804
     5 C    -0.004487  0.002340 -0.000323
     6 C     0.000968  0.000626 -0.001593
     7 C     0.002073  0.007659 -0.004568
     8 O    -0.013520  0.031813  0.045528
     9 C     0.035432 -0.030938  0.001064
    10 O    -0.007285  0.001060  0.001491
    11 C    -0.009764 -0.021287 -0.065129
    12 C    -0.008219  0.011328  0.008888
    13 C     0.005014 -0.000043 -0.005761
    14 C     0.000363  0.001561 -0.001581
    15 C     0.002300 -0.004933  0.000145
    16 C    -0.001893 -0.002164  0.002418
    17 C    -0.000595 -0.003223  0.002976
    18 N     0.047490  0.038701  0.092627
    19 C    -0.019214 -0.016210  0.000439
    20 H     0.000404  0.002545 -0.001209
    21 H     0.001789  0.000477 -0.001926
    22 H     0.002541 -0.001402  0.000055
    23 H     0.000689 -0.001938  0.001914
    24 H    -0.001107 -0.000751  0.002457
    25 H    -0.000094  0.000016  0.003227
    26 H    -0.001572  0.000598  0.002017
    27 H    -0.001237  0.002597  0.000334
    28 H     0.000652  0.001681 -0.001803
    29 H     0.003157  0.000223 -0.000851
    30 H     0.001738  0.003132  0.000525
    31 H     0.002789  0.001717  0.000366
    32 H     0.000372  0.000032 -0.005152
 ----------------------------------------

 dE(predicted):    -0.10207E-01, dE(actual):    -0.96185E-02, Trust radius:    0.400000, all in a.u.
 
----------------------------------------------------------------------
Geometry Convergence after Step   2       (Hartree/Angstrom,Angstrom)
----------------------------------------------------------------------
current energy                               -7.46835491 Hartree
energy change                      -0.00961846     0.00032000    F
constrained gradient max            0.09341027     0.00010000    F
constrained gradient rms            0.01926935     0.00006667    F
gradient max                        0.09341027
gradient rms                        0.01926935
cart. step max                      0.10172855     0.01000000    F
cart. step rms                      0.02934801     0.00666667    F
 

--------
Geometry
--------
Formula: C16H13NO2
Atoms
  Index Symbol   x (angstrom)   y (angstrom)   z (angstrom)
      1      C     1.23534144    -0.50433267     0.58314376
      2      C     2.51046321    -1.22902502     0.57397504
      3      C     3.42363668    -1.08833231    -0.49445939
      4      C     4.62236944    -1.80440331    -0.50073952
      5      C     4.92222024    -2.68665104     0.54436095
      6      C     4.01318119    -2.84622193     1.59874701
      7      C     2.81730696    -2.12768042     1.61932350
      8      O     0.21355935    -1.02327880     1.34488175
      9      C    -0.77522687    -0.00765687     1.57124259
     10      O    -1.80711865    -0.25854655     2.16892015
     11      C    -0.25570293     1.17535463     0.92100225
     12      C    -0.83686341     2.51427501     1.00691394
     13      C    -1.63413400     2.84936404     2.12515311
     14      C    -2.23267168     4.10611570     2.22202610
     15      C    -2.05761273     5.05982350     1.21114226
     16      C    -1.28338967     4.73774631     0.09018625
     17      C    -0.68691377     3.47993611    -0.01748688
     18      N     1.06223300     0.86283072     0.55917368
     19      C     1.96051280     1.76011817    -0.17591956
     20      H     3.18577381    -0.43647164    -1.33108723
     21      H     5.31621537    -1.68438215    -1.33069406
     22      H     5.85251087    -3.25102887     0.53344212
     23      H     4.23886905    -3.53214968     2.41300938
     24      H     2.11377612    -2.25407204     2.43728484
     25      H    -1.78007441     2.11304999     2.90955946
     26      H    -2.83866290     4.34258835     3.09491003
     27      H    -2.52701368     6.03837547     1.29049595
     28      H    -1.15465973     5.46335551    -0.71116195
     29      H    -0.12323024     3.24121325    -0.91478984
     30      H     1.82691484     2.77383491     0.20697019
     31      H     2.99192224     1.44455627    -0.00059185
     32      H     1.75378807     1.74883536    -1.25110404

Total System Charge              0.00000

 *** GO1_GOStep3 ***

 Energy gradients wrt nuclear displacements
 ==========================================

     Atom      Cartesian (a.u./angstrom)
                 X         Y         Z
 ----------------------------------------
     1 C    -0.020366 -0.016088 -0.071388
     2 C     0.008765 -0.005446  0.013624
     3 C    -0.003059  0.000127  0.000386
     4 C    -0.000033 -0.001045 -0.000252
     5 C    -0.000804  0.000352 -0.000314
     6 C     0.000222 -0.000595  0.000331
     7 C     0.001011  0.004035  0.000017
     8 O    -0.017145  0.011295  0.033116
     9 C     0.017992 -0.027150  0.005944
    10 O     0.000654  0.002950 -0.002811
    11 C    -0.013445 -0.002110 -0.043034
    12 C    -0.001742  0.004020  0.008299
    13 C     0.002045 -0.001433 -0.001326
    14 C    -0.000331  0.000664  0.000196
    15 C     0.000575 -0.000956  0.000124
    16 C    -0.000805 -0.000144 -0.000583
    17 C    -0.000086 -0.000707 -0.000821
    18 N     0.031318  0.035037  0.067096
    19 C    -0.011323 -0.008212 -0.009472
    20 H     0.000333  0.001763  0.000134
    21 H     0.000286  0.000246 -0.000130
    22 H     0.000349 -0.000212 -0.000076
    23 H     0.000022 -0.000245  0.000136
    24 H     0.000140 -0.000255  0.000584
    25 H     0.000462  0.000356  0.000835
    26 H    -0.000148 -0.000040  0.000125
    27 H    -0.000249  0.000355 -0.000003
    28 H     0.000085  0.000244 -0.000053
    29 H     0.001358  0.000631  0.000772
    30 H     0.000798  0.001103 -0.000270
    31 H     0.001252  0.000652  0.000045
    32 H     0.001868  0.000805 -0.001230
 ----------------------------------------

 dE(predicted):    -0.11369E-01, dE(actual):    -0.11469E-01, Trust radius:    0.800000, all in a.u.
 
----------------------------------------------------------------------
Geometry Convergence after Step   3       (Hartree/Angstrom,Angstrom)
----------------------------------------------------------------------
current energy                               -7.47982432 Hartree
energy change                      -0.01146941     0.00032000    F
constrained gradient max            0.07137980     0.00010000    F
constrained gradient rms            0.01364482     0.00006667    F
gradient max                        0.07137980
gradient rms                        0.01364482
cart. step max                      0.16333490     0.01000000    F
cart. step rms                      0.05565157     0.00666667    F
 

--------
Geometry
--------
Formula: C16H13NO2
Atoms
  Index Symbol   x (angstrom)   y (angstrom)   z (angstrom)
      1      C     1.27778632    -0.48245423     0.72360058
      2      C     2.52256147    -1.21712654     0.60773264
      3      C     3.41511548    -1.04634159    -0.48120394
      4      C     4.60939441    -1.76638683    -0.54151443
      5      C     4.93017984    -2.68834700     0.46347472
      6      C     4.03627191    -2.89308845     1.52395394
      7      C     2.84199930    -2.17731179     1.59910461
      8      O     0.22996627    -1.03575800     1.36783762
      9      C    -0.81252233    -0.00320576     1.62191942
     10      O    -1.84570042    -0.29623831     2.19512205
     11      C    -0.26554562     1.17042219     1.02007850
     12      C    -0.84722523     2.50159366     1.02475142
     13      C    -1.65332185     2.89109941     2.12435152
     14      C    -2.23674221     4.15667901     2.16927366
     15      C    -2.04215281     5.07406050     1.12704655
     16      C    -1.26838097     4.69774414     0.02217528
     17      C    -0.69092319     3.42749815    -0.03832294
     18      N     1.02786880     0.83451644     0.58586733
     19      C     1.96572823     1.78157021    -0.05770021
     20      H     3.15592622    -0.37794537    -1.29446875
     21      H     5.28056156    -1.62244170    -1.38322011
     22      H     5.85712538    -3.25107395     0.41336342
     23      H     4.27418120    -3.61244053     2.30192078
     24      H     2.15510684    -2.33310178     2.42289738
     25      H    -1.81193546     2.18474066     2.93069808
     26      H    -2.84342507     4.43184492     3.02759702
     27      H    -2.49585231     6.05936911     1.16910051
     28      H    -1.13153455     5.38728138    -0.80633156
     29      H    -0.14487554     3.14328865    -0.93129997
     30      H     1.78811470     2.76986244     0.36299760
     31      H     2.98426925     1.46242759     0.16274305
     32      H     1.80530036     1.80640337    -1.13571577

Total System Charge              0.00000

 *** GO1_GOStep4 ***

 Energy gradients wrt nuclear displacements
 ==========================================

     Atom      Cartesian (a.u./angstrom)
                 X         Y         Z
 ----------------------------------------
     1 C     0.013741 -0.008173 -0.031983
     2 C    -0.007170  0.003630  0.010717
     3 C     0.001935  0.000121 -0.005196
     4 C     0.002613  0.001413 -0.003348
     5 C     0.003791 -0.002334  0.000107
     6 C     0.000847 -0.001074  0.001714
     7 C    -0.002371 -0.002151  0.004292
     8 O    -0.001530  0.017863  0.000214
     9 C     0.007174 -0.012462  0.003132
    10 O    -0.006752  0.001762  0.001743
    11 C    -0.009770  0.011562 -0.013584
    12 C     0.005333 -0.008205  0.002196
    13 C    -0.002199 -0.001317  0.005123
    14 C    -0.000847  0.000140  0.002137
    15 C    -0.002108  0.003965  0.000060
    16 C     0.001495  0.002122 -0.002902
    17 C     0.001146  0.001888 -0.004333
    18 N    -0.005980 -0.010504  0.042511
    19 C     0.002688  0.005042 -0.016338
    20 H     0.000242 -0.002153  0.001475
    21 H    -0.001281 -0.000361  0.001967
    22 H    -0.002338  0.001219 -0.000032
    23 H    -0.000519  0.002074 -0.001696
    24 H     0.001808  0.000750 -0.001943
    25 H     0.000821  0.001487 -0.002445
    26 H     0.001685 -0.000689 -0.001912
    27 H     0.000943 -0.002378 -0.000220
    28 H    -0.000361 -0.001387  0.002015
    29 H    -0.001219  0.000758  0.001907
    30 H    -0.000363 -0.002307 -0.000272
    31 H    -0.001584  0.000508  0.000586
    32 H     0.000129 -0.000809  0.004310
 ----------------------------------------

 dE(predicted):    -0.10130E-01, dE(actual):    -0.11005E-01, Trust radius:    1.000000, all in a.u.
 
----------------------------------------------------------------------
Geometry Convergence after Step   4       (Hartree/Angstrom,Angstrom)
----------------------------------------------------------------------
current energy                               -7.49082927 Hartree
energy change                      -0.01100495     0.00032000    F
constrained gradient max            0.04251086     0.00010000    F
constrained gradient rms            0.00729777     0.00006667    F
gradient max                        0.04251086
gradient rms                        0.00729777
cart. step max                      0.21150429     0.01000000    F
cart. step rms                      0.08939944     0.00666667    F
 

--------
Geometry
--------
Formula: C16H13NO2
Atoms
  Index Symbol   x (angstrom)   y (angstrom)   z (angstrom)
      1      C     1.31832713    -0.44447091     0.87338842
      2      C     2.53926015    -1.19399999     0.66467996
      3      C     3.41301142    -0.95817377    -0.42515543
      4      C     4.57088107    -1.72031935    -0.58256767
      5      C     4.87753771    -2.74035190     0.32695188
      6      C     4.00485058    -3.00159040     1.39180445
      7      C     2.85015199    -2.24150744     1.56650408
      8      O     0.27702218    -1.00880067     1.49946802
      9      C    -0.76651604     0.05209799     1.73835152
     10      O    -1.78319129    -0.23376851     2.33842453
     11      C    -0.20856972     1.20521429     1.12701891
     12      C    -0.81836532     2.52302272     1.05969549
     13      C    -1.65522952     2.94589715     2.12328531
     14      C    -2.29476625     4.18355119     2.08208520
     15      C    -2.12155148     5.04228044     0.98813572
     16      C    -1.32123473     4.62876041    -0.08325960
     17      C    -0.68724604     3.38502646    -0.05633056
     18      N     1.05957473     0.85049232     0.63152865
     19      C     2.05087472     1.80406867     0.08884247
     20      H     3.16802988    -0.20282874    -1.16460027
     21      H     5.22722742    -1.52860023    -1.42780238
     22      H     5.78046895    -3.33194189     0.20185913
     23      H     4.22697310    -3.80280739     2.09238840
     24      H     2.17047834    -2.44866532     2.38658258
     25      H    -1.80227882     2.28079189     2.96799029
     26      H    -2.93164209     4.48238453     2.91180181
     27      H    -2.61592238     6.00964536     0.96332002
     28      H    -1.20507421     5.26860092    -0.95520969
     29      H    -0.12305873     3.06538842    -0.92740066
     30      H     1.86819015     2.77749765     0.54241980
     31      H     3.04866159     1.45080417     0.34946681
     32      H     1.95044551     1.87944189    -0.99583721

Total System Charge              0.00000

 *** GO1_GOStep5 ***

 Energy gradients wrt nuclear displacements
 ==========================================

     Atom      Cartesian (a.u./angstrom)
                 X         Y         Z
 ----------------------------------------
     1 C     0.000253  0.005709 -0.001722
     2 C    -0.004180  0.003756  0.003814
     3 C     0.000207  0.000293 -0.001447
     4 C     0.000713  0.000126 -0.001623
     5 C     0.000845 -0.001006  0.000407
     6 C     0.000751 -0.000870 -0.000888
     7 C     0.000427  0.001477  0.004278
     8 O    -0.003600  0.002138 -0.003202
     9 C     0.005179 -0.005160 -0.006249
    10 O    -0.000581  0.000123  0.001926
    11 C    -0.000712  0.002427 -0.000397
    12 C     0.006530 -0.003418  0.002561
    13 C    -0.001631  0.001630  0.002133
    14 C    -0.000827 -0.000660  0.000648
    15 C    -0.000394  0.002141  0.000171
    16 C    -0.000580 -0.000452 -0.001033
    17 C    -0.000611  0.001280 -0.001853
    18 N    -0.005051 -0.008808  0.008591
    19 C     0.006770  0.003604 -0.009179
    20 H    -0.000663  0.001466  0.001347
    21 H    -0.000623 -0.000321  0.000856
    22 H    -0.000872  0.000904  0.000543
    23 H    -0.000497  0.000449 -0.000899
    24 H     0.000247 -0.000016 -0.001363
    25 H     0.000311  0.000279 -0.001190
    26 H     0.000316 -0.000358 -0.000810
    27 H     0.000800 -0.001132  0.000157
    28 H    -0.000217 -0.000680  0.000795
    29 H    -0.001583  0.000470  0.000816
    30 H     0.000878 -0.002289 -0.000048
    31 H    -0.000654 -0.001306  0.000455
    32 H    -0.000951 -0.001796  0.002403
 ----------------------------------------

 dE(predicted):    -0.31671E-02, dE(actual):    -0.32106E-02, Trust radius:    1.000000, all in a.u.
 
----------------------------------------------------------------------
Geometry Convergence after Step   5       (Hartree/Angstrom,Angstrom)
----------------------------------------------------------------------
current energy                               -7.49403990 Hartree
energy change                      -0.00321063     0.00032000    F
constrained gradient max            0.00918717     0.00010000    F
constrained gradient rms            0.00267055     0.00006667    F
gradient max                        0.00918717
gradient rms                        0.00267055
cart. step max                      0.21348441     0.01000000    F
cart. step rms                      0.08806105     0.00666667    F
 

--------
Geometry
--------
Formula: C16H13NO2
Atoms
  Index Symbol   x (angstrom)   y (angstrom)   z (angstrom)
      1      C     1.40021118    -0.38921364     0.98361908
      2      C     2.58254041    -1.17459992     0.69203854
      3      C     3.40719826    -0.95713412    -0.43925415
      4      C     4.51532492    -1.77096102    -0.67428832
      5      C     4.81970641    -2.82661711     0.19412012
      6      C     3.99141093    -3.07294828     1.29739951
      7      C     2.88306173    -2.26660262     1.54442323
      8      O     0.37847603    -0.96265533     1.63147664
      9      C    -0.69303762     0.08804189     1.87209105
     10      O    -1.70297618    -0.22019494     2.46863491
     11      C    -0.16264049     1.23029424     1.23222665
     12      C    -0.81822576     2.51916160     1.08326287
     13      C    -1.71528318     2.95625215     2.08982312
     14      C    -2.38254871     4.17404645     1.97089524
     15      C    -2.17566868     4.99767847     0.85566085
     16      C    -1.30282745     4.57435143    -0.15339364
     17      C    -0.64290817     3.34818776    -0.05045425
     18      N     1.10664547     0.89680097     0.71002157
     19      C     2.06893935     1.92663118     0.26552079
     20      H     3.15422765    -0.18641445    -1.15972242
     21      H     5.13168304    -1.59360194    -1.55273902
     22      H     5.68281601    -3.46008739     0.00460803
     23      H     4.21112275    -3.89982952     1.96911381
     24      H     2.23843886    -2.46023669     2.39624029
     25      H    -1.88593770     2.31873421     2.95209283
     26      H    -3.06796435     4.48557085     2.75673272
     27      H    -2.69320540     5.95004346     0.77041963
     28      H    -1.14973022     5.19132154    -1.03671247
     29      H    -0.00918098     3.02144875    -0.87071648
     30      H     1.80763736     2.86463774     0.75590422
     31      H     3.07231664     1.61667026     0.55700519
     32      H     2.01769788     2.05836402    -0.81822012

Total System Charge              0.00000

 *** GO1_GOStep6 ***

 Energy gradients wrt nuclear displacements
 ==========================================

     Atom      Cartesian (a.u./angstrom)
                 X         Y         Z
 ----------------------------------------
     1 C     0.005142  0.005198  0.005436
     2 C    -0.004440  0.002189  0.003364
     3 C     0.002166 -0.002558 -0.002866
     4 C     0.000052  0.000495 -0.000049
     5 C     0.000072 -0.000499  0.000171
     6 C     0.000559  0.000315 -0.000167
     7 C    -0.000957 -0.001862 -0.000368
     8 O    -0.002871 -0.000666 -0.003756
     9 C     0.003746  0.001375 -0.000065
    10 O     0.000166 -0.000301 -0.002035
    11 C    -0.000379 -0.002066  0.005213
    12 C     0.002292 -0.000787 -0.001178
    13 C     0.000011  0.001376  0.001441
    14 C     0.000096 -0.000288  0.000360
    15 C    -0.000878  0.000348 -0.000215
    16 C     0.000792  0.000084 -0.000269
    17 C    -0.000456 -0.000514  0.000394
    18 N     0.000933 -0.007718 -0.006799
    19 C    -0.001579  0.010187 -0.000206
    20 H    -0.000208 -0.002821 -0.000044
    21 H    -0.000411 -0.000269  0.000486
    22 H    -0.000496  0.000180  0.000187
    23 H    -0.000012  0.000311 -0.000142
    24 H    -0.000145  0.000259 -0.000473
    25 H     0.000241 -0.000148 -0.000451
    26 H     0.000001 -0.000198 -0.000278
    27 H     0.000405 -0.000532  0.000149
    28 H    -0.000026 -0.000334  0.000404
    29 H     0.001855 -0.000595  0.000072
    30 H    -0.000921 -0.000256 -0.000063
    31 H    -0.002739  0.001041  0.000974
    32 H    -0.002012 -0.000945  0.000773
 ----------------------------------------

 dE(predicted):    -0.15561E-02, dE(actual):    -0.15330E-03, Trust radius:    0.113115, all in a.u.
 
----------------------------------------------------------------------
Geometry Convergence after Step   6       (Hartree/Angstrom,Angstrom)
----------------------------------------------------------------------
current energy                               -7.49419320 Hartree
energy change                      -0.00015330     0.00032000    T
constrained gradient max            0.01018508     0.00010000    F
constrained gradient rms            0.00222485     0.00006667    F
gradient max                        0.01018508
gradient rms                        0.00222485
cart. step max                      0.11133047     0.01000000    F
cart. step rms                      0.03356448     0.00666667    F
 

--------
Geometry
--------
Formula: C16H13NO2
Atoms
  Index Symbol   x (angstrom)   y (angstrom)   z (angstrom)
      1      C     1.37495392    -0.41301972     1.01457154
      2      C     2.56141064    -1.18753919     0.70175479
      3      C     3.38250969    -0.92521141    -0.42208999
      4      C     4.50287859    -1.71540816    -0.67953588
      5      C     4.82353947    -2.78979574     0.15975694
      6      C     4.00172888    -3.07647394     1.25886715
      7      C     2.88112423    -2.29424250     1.52778593
      8      O     0.35239513    -0.96245511     1.68106644
      9      C    -0.70426481     0.10823828     1.91666549
     10      O    -1.71508768    -0.17878831     2.52328475
     11      C    -0.17029071     1.23826340     1.24997496
     12      C    -0.82892069     2.52416099     1.07999880
     13      C    -1.72603143     2.97373785     2.08048197
     14      C    -2.38839072     4.19320655     1.94842055
     15      C    -2.18093545     5.00315984     0.82320274
     16      C    -1.31040135     4.56593019    -0.18180650
     17      C    -0.65346137     3.33916429    -0.06452519
     18      N     1.10033452     0.88150523     0.74512261
     19      C     2.11355398     1.86041992     0.30192466
     20      H     3.12175438    -0.13419175    -1.11787242
     21      H     5.11742449    -1.50307714    -1.55174004
     22      H     5.69592167    -3.40493601    -0.04790274
     23      H     4.23785448    -3.91430262     1.91125579
     24      H     2.24568360    -2.51535716     2.37992239
     25      H    -1.89643196     2.34851553     2.95184509
     26      H    -3.06999531     4.51717571     2.73255122
     27      H    -2.69724827     5.95541242     0.72669792
     28      H    -1.15737952     5.17182869    -1.07294943
     29      H    -0.02417072     3.00050765    -0.88303509
     30      H     1.89447982     2.81333985     0.78491502
     31      H     3.09999766     1.50533979     0.60219034
     32      H     2.08278486     1.99203260    -0.78296981

Total System Charge              0.00000

 *** GO1_GOStep7 ***

 Energy gradients wrt nuclear displacements
 ==========================================

     Atom      Cartesian (a.u./angstrom)
                 X         Y         Z
 ----------------------------------------
     1 C     0.006426 -0.003144  0.002256
     2 C     0.000601  0.002174 -0.000765
     3 C     0.001035 -0.000941 -0.000582
     4 C     0.000423  0.000533  0.000150
     5 C    -0.000076 -0.000399 -0.000332
     6 C     0.000417  0.000480  0.000192
     7 C    -0.000541 -0.002069 -0.000381
     8 O    -0.004639  0.002819 -0.001691
     9 C     0.005787 -0.000766  0.002440
    10 O    -0.002705 -0.000381 -0.001097
    11 C    -0.003913  0.003694  0.000535
    12 C    -0.001071 -0.001037 -0.000638
    13 C    -0.000143  0.000055  0.000615
    14 C     0.000267  0.000069  0.000582
    15 C    -0.000681  0.000253 -0.000359
    16 C     0.000837  0.000606 -0.000278
    17 C    -0.002102  0.000519 -0.000649
    18 N    -0.003118 -0.001103 -0.000425
    19 C     0.004623  0.001054 -0.000234
    20 H    -0.000483 -0.000307 -0.000189
    21 H    -0.000196 -0.000139  0.000301
    22 H    -0.000391  0.000043 -0.000027
    23 H     0.000027  0.000335  0.000037
    24 H     0.000480  0.000300 -0.000240
    25 H     0.000226 -0.000178 -0.000224
    26 H     0.000205 -0.000097 -0.000182
    27 H     0.000143 -0.000380  0.000003
    28 H    -0.000048 -0.000128  0.000301
    29 H    -0.000453  0.000316  0.000083
    30 H     0.000250 -0.001159 -0.000085
    31 H    -0.000629  0.000013  0.000217
    32 H    -0.000559 -0.001039  0.000663
 ----------------------------------------

 dE(predicted):    -0.88211E-03, dE(actual):    -0.63173E-03, Trust radius:    0.113115, all in a.u.
 
----------------------------------------------------------------------
Geometry Convergence after Step   7       (Hartree/Angstrom,Angstrom)
----------------------------------------------------------------------
current energy                               -7.49482493 Hartree
energy change                      -0.00063173     0.00032000    F
constrained gradient max            0.00642305     0.00010000    F
constrained gradient rms            0.00154810     0.00006667    F
gradient max                        0.00642305
gradient rms                        0.00154810
cart. step max                      0.06649244     0.01000000    F
cart. step rms                      0.02278310     0.00666667    F
 

--------
Geometry
--------
Formula: C16H13NO2
Atoms
  Index Symbol   x (angstrom)   y (angstrom)   z (angstrom)
      1      C     1.34927826    -0.43178449     1.00632183
      2      C     2.54374050    -1.19550293     0.69787219
      3      C     3.36824917    -0.91454197    -0.41807848
      4      C     4.50273855    -1.68630230    -0.67012185
      5      C     4.83526463    -2.75706599     0.16940355
      6      C     4.01064453    -3.06027477     1.26225225
      7      C     2.87838498    -2.29368493     1.52824691
      8      O     0.34132669    -0.97895483     1.69767034
      9      C    -0.72142665     0.08738835     1.92287350
     10      O    -1.71303365    -0.18858250     2.56428217
     11      C    -0.18754385     1.21670367     1.25233383
     12      C    -0.82841594     2.51220977     1.08829278
     13      C    -1.73330769     2.96745762     2.07879878
     14      C    -2.37744444     4.19652434     1.94425465
     15      C    -2.14155619     5.01050901     0.82777867
     16      C    -1.26434685     4.56636971    -0.16827146
     17      C    -0.62337966     3.33148112    -0.04776071
     18      N     1.07403665     0.85989082     0.73274456
     19      C     2.07302590     1.83952697     0.26404392
     20      H     3.10492995    -0.11903809    -1.10809539
     21      H     5.12214199    -1.45913372    -1.53551016
     22      H     5.72021438    -3.35632575    -0.03289958
     23      H     4.25562059    -3.89658589     1.91364262
     24      H     2.24092814    -2.52647914     2.37618743
     25      H    -1.92598379     2.33963180     2.94378071
     26      H    -3.06596392     4.52541794     2.72055021
     27      H    -2.64364957     5.97052214     0.72950326
     28      H    -1.09088708     5.17514375    -1.05399849
     29      H     0.01274693     2.98830456    -0.85923572
     30      H     1.85954729     2.79520759     0.74548769
     31      H     3.06770925     1.49128141     0.54662122
     32      H     2.02373091     1.96782671    -0.82114125

Total System Charge              0.00000

 *** GO1_GOStep8 ***

 Energy gradients wrt nuclear displacements
 ==========================================

     Atom      Cartesian (a.u./angstrom)
                 X         Y         Z
 ----------------------------------------
     1 C     0.000204  0.000410 -0.000003
     2 C     0.001307  0.000175 -0.001556
     3 C    -0.000389  0.000231  0.000660
     4 C    -0.000047 -0.000130 -0.000047
     5 C    -0.000076  0.000162  0.000050
     6 C    -0.000101 -0.000169 -0.000220
     7 C     0.000456  0.000304  0.000660
     8 O    -0.003483  0.001575  0.003039
     9 C    -0.000655 -0.005339 -0.004363
    10 O     0.000460  0.000612  0.001480
    11 C     0.000608  0.000765  0.001614
    12 C     0.000322  0.001284 -0.000760
    13 C     0.000275  0.000269  0.000353
    14 C    -0.000154 -0.000051 -0.000017
    15 C     0.000141 -0.000215  0.000105
    16 C    -0.000052  0.000211 -0.000217
    17 C     0.000341 -0.000828  0.000981
    18 N    -0.000906 -0.000147 -0.000332
    19 C     0.000820  0.000315 -0.001666
    20 H    -0.000331  0.001413  0.000190
    21 H     0.000010  0.000064  0.000021
    22 H    -0.000003  0.000019  0.000040
    23 H    -0.000076  0.000021  0.000041
    24 H     0.000152  0.000061  0.000034
    25 H     0.000044  0.000051  0.000028
    26 H     0.000048 -0.000004  0.000003
    27 H    -0.000040 -0.000009  0.000003
    28 H     0.000002 -0.000044  0.000080
    29 H     0.001264 -0.000631 -0.000175
    30 H    -0.000189  0.000088  0.000059
    31 H     0.000306 -0.000313 -0.000106
    32 H    -0.000257 -0.000151  0.000023
 ----------------------------------------

 dE(predicted):    -0.25867E-03, dE(actual):    -0.27623E-04, Trust radius:    0.028279, all in a.u.
 
----------------------------------------------------------------------
Geometry Convergence after Step   8       (Hartree/Angstrom,Angstrom)
----------------------------------------------------------------------
current energy                               -7.49485256 Hartree
energy change                      -0.00002762     0.00032000    T
constrained gradient max            0.00533515     0.00010000    F
constrained gradient rms            0.00100864     0.00006667    F
gradient max                        0.00533515
gradient rms                        0.00100864
cart. step max                      0.04030897     0.01000000    F
cart. step rms                      0.01509234     0.00666667    F
 

--------
Geometry
--------
Formula: C16H13NO2
Atoms
  Index Symbol   x (angstrom)   y (angstrom)   z (angstrom)
      1      C     1.36511540    -0.41820402     0.99462367
      2      C     2.55310384    -1.19369049     0.69144322
      3      C     3.38516504    -0.92780452    -0.42306409
      4      C     4.51209256    -1.71324817    -0.66699835
      5      C     4.82984772    -2.78351396     0.17884074
      6      C     3.99722261    -3.07274949     1.26937070
      7      C     2.87240323    -2.29244445     1.52722963
      8      O     0.35820152    -0.96612608     1.68433146
      9      C    -0.70351818     0.10124729     1.91694927
     10      O    -1.69480453    -0.17733588     2.55761764
     11      C    -0.17338165     1.22969403     1.24362177
     12      C    -0.82524458     2.52038031     1.08379559
     13      C    -1.72997226     2.96387215     2.07998641
     14      C    -2.38766183     4.18656130     1.95290369
     15      C    -2.16701505     5.00631446     0.83759416
     16      C    -1.29198889     4.57332616    -0.16514731
     17      C    -0.63713664     3.34504368    -0.05194811
     18      N     1.08987089     0.87479620     0.72405792
     19      C     2.08711451     1.85889418     0.26137900
     20      H     3.13345198    -0.13417912    -1.11899546
     21      H     5.13703252    -1.49728048    -1.53122982
     22      H     5.70891752    -3.39334908    -0.01719123
     23      H     4.22999511    -3.90911890     1.92507775
     24      H     2.22854072    -2.51505053     2.37305054
     25      H    -1.91160364     2.33163046     2.94408706
     26      H    -3.07515985     4.50579608     2.73408404
     27      H    -2.67969553     5.96122067     0.74491405
     28      H    -1.13119605     5.18563879    -1.05081957
     29      H    -0.00520754     3.01070416    -0.86981637
     30      H     1.87045322     2.81190243     0.74653372
     31      H     3.08190160     1.51196730     0.54479174
     32      H     2.04047622     1.99224551    -0.82324348

Total System Charge              0.00000

 *** GO1_GOStep9 ***

 Energy gradients wrt nuclear displacements
 ==========================================

     Atom      Cartesian (a.u./angstrom)
                 X         Y         Z
 ----------------------------------------
     1 C     0.000751  0.000430 -0.000340
     2 C    -0.000705 -0.001009 -0.000089
     3 C    -0.000015 -0.000094 -0.000319
     4 C    -0.000073 -0.000033 -0.000100
     5 C     0.000185  0.000036  0.000103
     6 C    -0.000013 -0.000298 -0.000093
     7 C     0.000285  0.000412  0.000391
     8 O    -0.000883  0.001067  0.001450
     9 C    -0.000063 -0.003470 -0.002911
    10 O     0.000175  0.000619  0.000891
    11 C     0.000254  0.001213  0.000881
    12 C    -0.000174  0.000114  0.000111
    13 C     0.000176  0.000056  0.000017
    14 C    -0.000206 -0.000042  0.000047
    15 C     0.000163  0.000061  0.000086
    16 C    -0.000155  0.000091 -0.000176
    17 C     0.000047 -0.000022  0.000026
    18 N    -0.000422 -0.000289  0.000087
    19 C     0.000776  0.001145 -0.000759
    20 H     0.000069  0.000199  0.000237
    21 H     0.000006  0.000046  0.000029
    22 H    -0.000034  0.000066  0.000034
    23 H    -0.000015  0.000002 -0.000030
    24 H    -0.000056  0.000012  0.000062
    25 H     0.000061 -0.000053  0.000007
    26 H     0.000036  0.000027 -0.000037
    27 H    -0.000023 -0.000064 -0.000002
    28 H    -0.000060 -0.000018  0.000075
    29 H     0.000132 -0.000104  0.000102
    30 H    -0.000044 -0.000106 -0.000038
    31 H    -0.000154 -0.000011 -0.000016
    32 H    -0.000020  0.000017  0.000274
 ----------------------------------------

 dE(predicted):    -0.10907E-03, dE(actual):    -0.11617E-03, Trust radius:    0.056558, all in a.u.
 
----------------------------------------------------------------------
Geometry Convergence after Step   9       (Hartree/Angstrom,Angstrom)
----------------------------------------------------------------------
current energy                               -7.49496873 Hartree
energy change                      -0.00011617     0.00032000    T
constrained gradient max            0.00346298     0.00010000    F
constrained gradient rms            0.00059875     0.00006667    F
gradient max                        0.00346298
gradient rms                        0.00059875
cart. step max                      0.02693944     0.01000000    F
cart. step rms                      0.00871960     0.00666667    F
 

--------
Geometry
--------
Formula: C16H13NO2
Atoms
  Index Symbol   x (angstrom)   y (angstrom)   z (angstrom)
      1      C     1.36710068    -0.41713761     1.00465782
      2      C     2.55419124    -1.19123813     0.69514183
      3      C     3.38658493    -0.91830103    -0.41750290
      4      C     4.51101659    -1.70501258    -0.66886644
      5      C     4.82596191    -2.78361227     0.16730828
      6      C     3.99282938    -3.07990046     1.25554535
      7      C     2.86955700    -2.29961963     1.51970310
      8      O     0.36044298    -0.96513417     1.69294931
      9      C    -0.69294129     0.10965710     1.94388871
     10      O    -1.68566814    -0.17120574     2.58103367
     11      C    -0.16889899     1.23255331     1.25778815
     12      C    -0.82345254     2.52048906     1.08853826
     13      C    -1.73320194     2.96756641     2.07868934
     14      C    -2.39332519     4.18787467     1.94193297
     15      C    -2.17030968     5.00193852     0.82291339
     16      C    -1.28976293     4.56558535    -0.17349859
     17      C    -0.63314805     3.33918592    -0.05126397
     18      N     1.09243536     0.87582754     0.73523418
     19      C     2.08898050     1.85966018     0.27244351
     20      H     3.13535000    -0.12048545    -1.10870689
     21      H     5.13544212    -1.48421968    -1.53225408
     22      H     5.70298252    -3.39451220    -0.03467399
     23      H     4.22304957    -3.92304224     1.90342954
     24      H     2.22442513    -2.52894894     2.36269488
     25      H    -1.91741011     2.33969466     2.94540024
     26      H    -3.08526707     4.50939542     2.71826245
     27      H    -2.68436226     5.95540563     0.72309938
     28      H    -1.12631145     5.17347901    -1.06177487
     29      H     0.00243765     3.00207180    -0.86509839
     30      H     1.87332460     2.81230476     0.75897356
     31      H     3.08418701     1.51219677     0.55390782
     32      H     2.04108044     1.99462404    -0.81206559

Total System Charge              0.00000

 *** GO1_GOStep10 ***

 Energy gradients wrt nuclear displacements
 ==========================================

     Atom      Cartesian (a.u./angstrom)
                 X         Y         Z
 ----------------------------------------
     1 C     0.000652  0.000427  0.000945
     2 C    -0.000311 -0.000078 -0.000003
     3 C     0.000110  0.000099 -0.000028
     4 C     0.000041  0.000045  0.000026
     5 C     0.000026 -0.000054 -0.000105
     6 C     0.000029  0.000048  0.000110
     7 C    -0.000000  0.000026 -0.000019
     8 O    -0.001761  0.000817 -0.001078
     9 C     0.003194 -0.001056  0.002055
    10 O    -0.001028 -0.000195 -0.000752
    11 C    -0.000427  0.000343 -0.000651
    12 C    -0.000247  0.000127 -0.000419
    13 C     0.000231 -0.000021  0.000134
    14 C    -0.000069  0.000047  0.000086
    15 C    -0.000029 -0.000044 -0.000039
    16 C     0.000083  0.000124 -0.000057
    17 C    -0.000073 -0.000011  0.000029
    18 N    -0.000302 -0.000988  0.000265
    19 C     0.000224  0.000544 -0.000601
    20 H    -0.000093  0.000105  0.000052
    21 H     0.000001 -0.000008  0.000005
    22 H    -0.000026  0.000021 -0.000011
    23 H    -0.000007  0.000020 -0.000043
    24 H    -0.000054 -0.000025 -0.000019
    25 H    -0.000022 -0.000066 -0.000063
    26 H     0.000004 -0.000005 -0.000044
    27 H     0.000005 -0.000043  0.000012
    28 H    -0.000022  0.000010  0.000060
    29 H     0.000168 -0.000118  0.000048
    30 H    -0.000106 -0.000033  0.000041
    31 H    -0.000090 -0.000134 -0.000041
    32 H    -0.000098  0.000072  0.000103
 ----------------------------------------

 dE(predicted):    -0.36965E-04, dE(actual):    -0.32989E-05, Trust radius:    0.020000, all in a.u.
 
----------------------------------------------------------------------
Geometry Convergence after Step  10       (Hartree/Angstrom,Angstrom)
----------------------------------------------------------------------
current energy                               -7.49497203 Hartree
energy change                      -0.00000330     0.00032000    T
constrained gradient max            0.00319450     0.00010000    F
constrained gradient rms            0.00052921     0.00006667    F
gradient max                        0.00319450
gradient rms                        0.00052921
cart. step max                      0.00589144     0.01000000    T
cart. step rms                      0.00201354     0.00666667    T
 

--------
Geometry
--------
Formula: C16H13NO2
Atoms
  Index Symbol   x (angstrom)   y (angstrom)   z (angstrom)
      1      C     1.36633317    -0.41762489     1.00287775
      2      C     2.55397756    -1.19126275     0.69391922
      3      C     3.38512838    -0.92074897    -0.42029428
      4      C     4.51000835    -1.70717908    -0.67056221
      5      C     4.82659986    -2.78335049     0.16810758
      6      C     3.99424594    -3.07790666     1.25739212
      7      C     2.87047372    -2.29798490     1.52037144
      8      O     0.36096000    -0.96447370     1.69380823
      9      C    -0.69542999     0.11011955     1.93992387
     10      O    -1.68514532    -0.16907585     2.58205148
     11      C    -0.16972197     1.23265049     1.25499375
     12      C    -0.82334395     2.52118836     1.08755133
     13      C    -1.73416021     2.96657104     2.07758044
     14      C    -2.39433739     4.18697877     1.94226786
     15      C    -2.17104210     5.00271301     0.82453030
     16      C    -1.29016074     4.56769617    -0.17216256
     17      C    -0.63315228     3.34139075    -0.05128037
     18      N     1.09177945     0.87531547     0.73290203
     19      C     2.09094644     1.85801001     0.27395601
     20      H     3.13250291    -0.12555556    -1.11395022
     21      H     5.13348935    -1.48808346    -1.53505126
     22      H     5.70407083    -3.39391668    -0.03293592
     23      H     4.22564529    -3.91922042     1.90722132
     24      H     2.22630732    -2.52574160     2.36447777
     25      H    -1.91870757     2.33759323     2.94339987
     26      H    -3.08673013     4.50715728     2.71874927
     27      H    -2.68524747     5.95621179     0.72578454
     28      H    -1.12677890     5.17654225    -1.05980669
     29      H     0.00182717     3.00535610    -0.86596565
     30      H     1.87509372     2.81075222     0.76022382
     31      H     3.08491667     1.50937156     0.55841635
     32      H     2.04697188     1.99364699    -0.81066718

Total System Charge              0.00000

 *** GO1_GOStep11 ***

 Energy gradients wrt nuclear displacements
 ==========================================

     Atom      Cartesian (a.u./angstrom)
                 X         Y         Z
 ----------------------------------------
     1 C     0.000772  0.000158  0.000276
     2 C    -0.000210  0.000250  0.000042
     3 C     0.000170  0.000112 -0.000084
     4 C     0.000039  0.000056 -0.000022
     5 C     0.000055 -0.000044 -0.000049
     6 C     0.000003  0.000030  0.000074
     7 C    -0.000102 -0.000147 -0.000068
     8 O    -0.001226  0.001070 -0.000142
     9 C     0.001477 -0.001330  0.000389
    10 O    -0.000314  0.000099 -0.000182
    11 C    -0.000315  0.000529 -0.000291
    12 C     0.000087 -0.000010 -0.000046
    13 C     0.000016 -0.000060  0.000059
    14 C    -0.000030 -0.000001  0.000069
    15 C    -0.000048  0.000004 -0.000028
    16 C     0.000049  0.000041 -0.000041
    17 C    -0.000067  0.000041 -0.000087
    18 N    -0.000400 -0.000697  0.000246
    19 C     0.000327  0.000168 -0.000184
    20 H    -0.000037 -0.000090  0.000004
    21 H    -0.000005 -0.000011  0.000022
    22 H    -0.000028  0.000018 -0.000012
    23 H     0.000007  0.000039 -0.000027
    24 H     0.000005 -0.000004 -0.000034
    25 H    -0.000011 -0.000044 -0.000043
    26 H     0.000008 -0.000011 -0.000039
    27 H     0.000007 -0.000032  0.000012
    28 H    -0.000021 -0.000003  0.000049
    29 H    -0.000057 -0.000018  0.000043
    30 H    -0.000043 -0.000051  0.000034
    31 H    -0.000062 -0.000060 -0.000026
    32 H    -0.000046 -0.000001  0.000085
 ----------------------------------------

 dE(predicted):    -0.13389E-04, dE(actual):    -0.10463E-04, Trust radius:    0.040000, all in a.u.
 
----------------------------------------------------------------------
Geometry Convergence after Step  11       (Hartree/Angstrom,Angstrom)
----------------------------------------------------------------------
current energy                               -7.49498249 Hartree
energy change                      -0.00001046     0.00032000    T
constrained gradient max            0.00147835     0.00010000    F
constrained gradient rms            0.00031043     0.00006667    F
gradient max                        0.00147835
gradient rms                        0.00031043
cart. step max                      0.00426998     0.01000000    T
cart. step rms                      0.00175292     0.00666667    T
 

--------
Geometry
--------
Formula: C16H13NO2
Atoms
  Index Symbol   x (angstrom)   y (angstrom)   z (angstrom)
      1      C     1.36379302    -0.41954786     1.00031440
      2      C     2.55176434    -1.19294039     0.69158183
      3      C     3.38221478    -0.92294445    -0.42320566
      4      C     4.50879030    -1.70744151    -0.67191462
      5      C     4.82771827    -2.78128145     0.16886150
      6      C     3.99603028    -3.07547043     1.25875142
      7      C     2.87113590    -2.29683200     1.52075821
      8      O     0.36010483    -0.96620423     1.69328678
      9      C    -0.69756663     0.10961219     1.93905561
     10      O    -1.68519244    -0.16917710     2.58431325
     11      C    -0.17112658     1.23143824     1.25404507
     12      C    -0.82397519     2.52041466     1.08725419
     13      C    -1.73523230     2.96594223     2.07689394
     14      C    -2.39411006     4.18709250     1.94207317
     15      C    -2.16912783     5.00367250     0.82529934
     16      C    -1.28792549     4.56854265    -0.17104376
     17      C    -0.63190828     3.34166972    -0.05056598
     18      N     1.08981168     0.87372535     0.73055868
     19      C     2.09001452     1.85639985     0.27427633
     20      H     3.12922175    -0.12827585    -1.11735483
     21      H     5.13227203    -1.48810110    -1.53635041
     22      H     5.70681446    -3.39001612    -0.03068739
     23      H     4.22928557    -3.91495044     1.91030288
     24      H     2.22804014    -2.52368333     2.36591295
     25      H    -1.92067335     2.33685459     2.94243069
     26      H    -3.08668349     4.50725268     2.71841952
     27      H    -2.68238932     5.95772609     0.72690692
     28      H    -1.12314995     5.17794009    -1.05807634
     29      H     0.00366396     3.00618272    -0.86499952
     30      H     1.87368963     2.80896239     0.76071659
     31      H     3.08347543     1.50752859     0.56037823
     32      H     2.04854002     1.99304922    -0.81036300

Total System Charge              0.00000

 *** GO1_GOStep12 ***

 Energy gradients wrt nuclear displacements
 ==========================================

     Atom      Cartesian (a.u./angstrom)
                 X         Y         Z
 ----------------------------------------
     1 C     0.000511  0.000178 -0.000035
     2 C    -0.000505  0.000044 -0.000094
     3 C     0.000039  0.000020 -0.000158
     4 C    -0.000018  0.000018 -0.000049
     5 C     0.000090 -0.000019  0.000014
     6 C    -0.000060 -0.000053 -0.000007
     7 C     0.000086 -0.000032  0.000146
     8 O    -0.000745  0.000670  0.000339
     9 C     0.000745 -0.001144 -0.000325
    10 O    -0.000100  0.000080  0.000137
    11 C    -0.000037  0.000444 -0.000160
    12 C     0.000092 -0.000171  0.000003
    13 C    -0.000084 -0.000025  0.000050
    14 C    -0.000026 -0.000026  0.000016
    15 C     0.000003  0.000045  0.000021
    16 C    -0.000013 -0.000021 -0.000039
    17 C     0.000041  0.000046 -0.000052
    18 N    -0.000201 -0.000198  0.000032
    19 C     0.000113  0.000044  0.000052
    20 H     0.000100 -0.000018  0.000058
    21 H     0.000009  0.000024  0.000031
    22 H     0.000008  0.000041  0.000017
    23 H    -0.000006  0.000015 -0.000030
    24 H     0.000034  0.000004 -0.000030
    25 H     0.000020  0.000005 -0.000017
    26 H     0.000003 -0.000015 -0.000023
    27 H    -0.000003 -0.000016  0.000005
    28 H    -0.000013 -0.000005  0.000026
    29 H    -0.000041  0.000028  0.000038
    30 H    -0.000009  0.000005  0.000013
    31 H    -0.000038  0.000013 -0.000022
    32 H     0.000004  0.000020  0.000043
 ----------------------------------------

 dE(predicted):    -0.32361E-05, dE(actual):     0.30318E-05, Trust radius:    0.020000, all in a.u.
 
----------------------------------------------------------------------
Geometry Convergence after Step  12       (Hartree/Angstrom,Angstrom)
----------------------------------------------------------------------
current energy                               -7.49497946 Hartree
energy change                       0.00000303     0.00032000    T
constrained gradient max            0.00113668     0.00010000    F
constrained gradient rms            0.00020838     0.00006667    F
gradient max                        0.00113668
gradient rms                        0.00020838
cart. step max                      0.00359688     0.01000000    T
cart. step rms                      0.00127428     0.00666667    T
 

--------
Geometry
--------
Formula: C16H13NO2
Atoms
  Index Symbol   x (angstrom)   y (angstrom)   z (angstrom)
      1      C     1.36208614    -0.42096221     0.99924136
      2      C     2.55124530    -1.19307469     0.69128690
      3      C     3.38064769    -0.92335578    -0.42424500
      4      C     4.50778414    -1.70703840    -0.67298780
      5      C     4.82843163    -2.77956030     0.16879601
      6      C     3.99795388    -3.07326839     1.25972765
      7      C     2.87197643    -2.29600083     1.52116397
      8      O     0.35913642    -0.96778017     1.69233894
      9      C    -0.69945693     0.10983040     1.93883897
     10      O    -1.68636223    -0.16925178     2.58470220
     11      C    -0.17185470     1.23085548     1.25418373
     12      C    -0.82387635     2.52027032     1.08761812
     13      C    -1.73580436     2.96592726     2.07662588
     14      C    -2.39418282     4.18730592     1.94160440
     15      C    -2.16814011     5.00413592     0.82523050
     16      C    -1.28611598     4.56902651    -0.17038058
     17      C    -0.63064902     3.34187281    -0.04979162
     18      N     1.08877263     0.87258581     0.73005253
     19      C     2.08987120     1.85484788     0.27518014
     20      H     3.12562487    -0.13054042    -1.11981172
     21      H     5.12995129    -1.48849960    -1.53857701
     22      H     5.70778754    -3.38787027    -0.03093714
     23      H     4.23255631    -3.91176438     1.91207527
     24      H     2.22936782    -2.52285455     2.36669091
     25      H    -1.92239359     2.33665876     2.94178176
     26      H    -3.08733459     4.50734154     2.71750353
     27      H    -2.68103069     5.95836851     0.72666742
     28      H    -1.12035765     5.17855637    -1.05715601
     29      H     0.00530104     3.00653011    -0.86399142
     30      H     1.87329963     2.80756673     0.76118415
     31      H     3.08287707     1.50578328     0.56276892
     32      H     2.05020799     1.99149815    -0.80955497

Total System Charge              0.00000

 *** GO1_GOStep13 ***

 Energy gradients wrt nuclear displacements
 ==========================================

     Atom      Cartesian (a.u./angstrom)
                 X         Y         Z
 ----------------------------------------
     1 C     0.000289  0.000042 -0.000202
     2 C    -0.000351  0.000246  0.000004
     3 C     0.000063  0.000108 -0.000022
     4 C     0.000009  0.000040 -0.000012
     5 C     0.000043 -0.000037 -0.000011
     6 C     0.000010  0.000038  0.000045
     7 C    -0.000002 -0.000168  0.000045
     8 O    -0.000398  0.000449  0.000382
     9 C     0.000294 -0.000743 -0.000465
    10 O     0.000026  0.000052  0.000186
    11 C     0.000030  0.000300 -0.000073
    12 C     0.000190 -0.000250  0.000074
    13 C    -0.000122  0.000024  0.000067
    14 C     0.000014 -0.000033  0.000001
    15 C    -0.000051  0.000037  0.000000
    16 C     0.000015 -0.000027  0.000003
    17 C     0.000046  0.000037 -0.000056
    18 N    -0.000127 -0.000059 -0.000024
    19 C     0.000008 -0.000078  0.000123
    20 H     0.000054 -0.000085 -0.000017
    21 H    -0.000018  0.000006  0.000011
    22 H    -0.000008  0.000017 -0.000005
    23 H    -0.000005  0.000014 -0.000016
    24 H     0.000035  0.000001 -0.000038
    25 H    -0.000003  0.000003 -0.000029
    26 H    -0.000003 -0.000021 -0.000007
    27 H    -0.000002 -0.000015  0.000005
    28 H    -0.000004 -0.000010  0.000011
    29 H    -0.000053  0.000048  0.000014
    30 H     0.000011  0.000017 -0.000001
    31 H    -0.000014  0.000035  0.000001
    32 H     0.000027  0.000013  0.000008
 ----------------------------------------

 dE(predicted):    -0.16078E-05, dE(actual):     0.31961E-05, Trust radius:    0.020000, all in a.u.
 
----------------------------------------------------------------------
Geometry Convergence after Step  13       (Hartree/Angstrom,Angstrom)
----------------------------------------------------------------------
current energy                               -7.49497626 Hartree
energy change                       0.00000320     0.00032000    T
constrained gradient max            0.00073620     0.00010000    F
constrained gradient rms            0.00014644     0.00006667    F
gradient max                        0.00073620
gradient rms                        0.00014644
cart. step max                      0.00381270     0.01000000    T
cart. step rms                      0.00136816     0.00666667    T
 

--------
Geometry
--------
Formula: C16H13NO2
Atoms
  Index Symbol   x (angstrom)   y (angstrom)   z (angstrom)
      1      C     1.35994322    -0.42297326     0.99813857
      2      C     2.55018612    -1.19407287     0.69056621
      3      C     3.37859303    -0.92419098    -0.42554615
      4      C     4.50711990    -1.70603839    -0.67378795
      5      C     4.82964125    -2.77727476     0.16889187
      6      C     3.99962827    -3.07169723     1.25998345
      7      C     2.87270162    -2.29571999     1.52129142
      8      O     0.35719139    -0.97015794     1.69019091
      9      C    -0.70212606     0.11005133     1.93864385
     10      O    -1.68923019    -0.16987028     2.58336223
     11      C    -0.17278907     1.23015731     1.25488019
     12      C    -0.82397888     2.52003915     1.08806914
     13      C    -1.73553905     2.96664634     2.07696846
     14      C    -2.39310448     4.18841712     1.94164083
     15      C    -2.16648695     5.00485034     0.82508825
     16      C    -1.28489320     4.56877988    -0.17046740
     17      C    -0.63022484     3.34121908    -0.04955324
     18      N     1.08760121     0.87108382     0.73016596
     19      C     2.08933005     1.85308675     0.27619630
     20      H     3.12238078    -0.13177136    -1.12120276
     21      H     5.12915650    -1.48678109    -1.53929835
     22      H     5.71019875    -3.38405757    -0.03021455
     23      H     4.23588294    -3.90912295     1.91311858
     24      H     2.23066464    -2.52267771     2.36724485
     25      H    -1.92235542     2.33794423     2.94249706
     26      H    -3.08592775     4.50911290     2.71757206
     27      H    -2.67866253     5.95943626     0.72632144
     28      H    -1.11860934     5.17796492    -1.05739014
     29      H     0.00563401     3.00536373    -0.86363611
     30      H     1.87274499     2.80580149     0.76214266
     31      H     3.08205652     1.50370589     0.56450687
     32      H     2.05059256     1.98988583    -0.80855448

Total System Charge              0.00000

 *** GO1_GOStep14 ***

 Energy gradients wrt nuclear displacements
 ==========================================

     Atom      Cartesian (a.u./angstrom)
                 X         Y         Z
 ----------------------------------------
     1 C     0.000225 -0.000167 -0.000240
     2 C    -0.000210  0.000271  0.000051
     3 C    -0.000040 -0.000034 -0.000033
     4 C    -0.000002 -0.000004 -0.000028
     5 C     0.000069  0.000023  0.000014
     6 C    -0.000082 -0.000040 -0.000064
     7 C     0.000073 -0.000114  0.000096
     8 O    -0.000064  0.000224  0.000147
     9 C    -0.000007 -0.000148 -0.000207
    10 O     0.000040  0.000004  0.000068
    11 C    -0.000051  0.000183  0.000043
    12 C     0.000182 -0.000296  0.000071
    13 C    -0.000155  0.000037  0.000065
    14 C     0.000010 -0.000057 -0.000023
    15 C    -0.000018  0.000065  0.000010
    16 C    -0.000026 -0.000038 -0.000001
    17 C     0.000044  0.000046 -0.000043
    18 N    -0.000086 -0.000037 -0.000013
    19 C    -0.000042 -0.000063  0.000081
    20 H     0.000056  0.000009 -0.000003
    21 H     0.000007  0.000034  0.000024
    22 H     0.000002  0.000028  0.000006
    23 H     0.000009  0.000030  0.000007
    24 H     0.000032  0.000010 -0.000032
    25 H     0.000007  0.000009 -0.000021
    26 H    -0.000006 -0.000030  0.000005
    27 H     0.000001 -0.000020  0.000005
    28 H     0.000007 -0.000009  0.000006
    29 H    -0.000030  0.000059 -0.000002
    30 H     0.000013  0.000000 -0.000012
    31 H     0.000008  0.000028  0.000019
    32 H     0.000032 -0.000002  0.000002
 ----------------------------------------

 dE(predicted):    -0.14098E-05, dE(actual):     0.42065E-05, Trust radius:    0.020000, all in a.u.
 
----------------------------------------------------------------------
Geometry Convergence after Step  14       (Hartree/Angstrom,Angstrom)
----------------------------------------------------------------------
current energy                               -7.49497206 Hartree
energy change                       0.00000421     0.00032000    T
constrained gradient max            0.00029090     0.00010000    F
constrained gradient rms            0.00008535     0.00006667    F
gradient max                        0.00029090
gradient rms                        0.00008535
cart. step max                      0.00276911     0.01000000    T
cart. step rms                      0.00091730     0.00666667    T
 

--------
Geometry
--------
Formula: C16H13NO2
Atoms
  Index Symbol   x (angstrom)   y (angstrom)   z (angstrom)
      1      C     1.35920356    -0.42363576     0.99755770
      2      C     2.55006770    -1.19435771     0.69038778
      3      C     3.37885651    -0.92379208    -0.42521961
      4      C     4.50763418    -1.70532984    -0.67333290
      5      C     4.83023820    -2.77651927     0.16937431
      6      C     4.00044074    -3.07089108     1.26063346
      7      C     2.87281111    -2.29566662     1.52130468
      8      O     0.35605357    -0.97162327     1.68809598
      9      C    -0.70354189     0.10936328     1.93747102
     10      O    -1.69119775    -0.17123680     2.58091541
     11      C    -0.17341615     1.22955654     1.25473445
     12      C    -0.82435605     2.51972564     1.08795488
     13      C    -1.73439690     2.96736574     2.07769171
     14      C    -2.39136807     4.18949317     1.94252428
     15      C    -2.16553207     5.00513870     0.82524433
     16      C    -1.28509724     4.56819403    -0.17094994
     17      C    -0.63114512     3.34022520    -0.05016939
     18      N     1.08721332     0.87068549     0.73030110
     19      C     2.08874179     1.85307218     0.27664162
     20      H     3.12214114    -0.13163787    -1.12102231
     21      H     5.12948797    -1.48624534    -1.53903178
     22      H     5.71082304    -3.38326963    -0.02977312
     23      H     4.23663339    -3.90852397     1.91354072
     24      H     2.23041076    -2.52301560     2.36691324
     25      H    -1.92068024     2.33916868     2.94372758
     26      H    -3.08315863     4.51102812     2.71903744
     27      H    -2.67729075     5.95996306     0.72653982
     28      H    -1.11939663     5.17688000    -1.05832756
     29      H     0.00381214     3.00348807    -0.86462417
     30      H     1.87212576     2.80545569     0.76322079
     31      H     3.08158227     1.50360730     0.56448476
     32      H     2.04962036     1.99047397    -0.80801627

Total System Charge              0.00000

 *** GO1_GOStep15 ***

 Energy gradients wrt nuclear displacements
 ==========================================

     Atom      Cartesian (a.u./angstrom)
                 X         Y         Z
 ----------------------------------------
     1 C     0.000067 -0.000118 -0.000086
     2 C    -0.000115  0.000055  0.000001
     3 C     0.000030  0.000032  0.000044
     4 C     0.000032  0.000019  0.000013
     5 C    -0.000009 -0.000021 -0.000044
     6 C     0.000058  0.000085  0.000057
     7 C     0.000030 -0.000062  0.000013
     8 O    -0.000030 -0.000020  0.000016
     9 C     0.000012 -0.000005 -0.000026
    10 O    -0.000008 -0.000030  0.000012
    11 C    -0.000009  0.000117  0.000070
    12 C     0.000054 -0.000202 -0.000022
    13 C    -0.000085  0.000036  0.000050
    14 C     0.000032 -0.000030  0.000002
    15 C    -0.000038  0.000011 -0.000024
    16 C     0.000006  0.000006  0.000037
    17 C     0.000025  0.000027 -0.000012
    18 N    -0.000008  0.000067 -0.000051
    19 C    -0.000042  0.000022  0.000007
    20 H     0.000009  0.000009 -0.000014
    21 H    -0.000003  0.000012 -0.000006
    22 H     0.000002  0.000012 -0.000004
    23 H    -0.000015 -0.000016 -0.000023
    24 H     0.000002  0.000000 -0.000016
    25 H    -0.000007 -0.000004 -0.000018
    26 H    -0.000013 -0.000028  0.000008
    27 H    -0.000007 -0.000015  0.000005
    28 H     0.000001 -0.000006 -0.000001
    29 H    -0.000012  0.000038 -0.000008
    30 H     0.000006 -0.000009 -0.000005
    31 H     0.000016  0.000013  0.000023
    32 H     0.000018  0.000002  0.000001
 ----------------------------------------
 
----------------------------------------------------------------------
Geometry Convergence after Step  15       (Hartree/Angstrom,Angstrom)
----------------------------------------------------------------------
current energy                               -7.49497113 Hartree
energy change                       0.00000093     0.00032000    T
constrained gradient max            0.00019641     0.00010000    F
constrained gradient rms            0.00004143     0.00006667    T
gradient max                        0.00019641
gradient rms                        0.00004143
cart. step max                      0.00186238     0.01000000    T
cart. step rms                      0.00064294     0.00666667    T
 

--------
Geometry
--------
Formula: C16H13NO2
Atoms
  Index Symbol   x (angstrom)   y (angstrom)   z (angstrom)
      1      C     1.35915752    -0.42371519     0.99773285
      2      C     2.55018306    -1.19435712     0.69052560
      3      C     3.37904684    -0.92351435    -0.42494507
      4      C     4.50803309    -1.70479115    -0.67293030
      5      C     4.83053705    -2.77615964     0.16959491
      6      C     4.00017671    -3.07130092     1.26021196
      7      C     2.87254950    -2.29607342     1.52096901
      8      O     0.35574433    -0.97201409     1.68760297
      9      C    -0.70411190     0.10896865     1.93689454
     10      O    -1.69213857    -0.17187739     2.57963315
     11      C    -0.17373867     1.22926445     1.25459090
     12      C    -0.82448032     2.51964097     1.08788919
     13      C    -1.73354301     2.96789712     2.07816870
     14      C    -2.39029146     4.19016815     1.94300921
     15      C    -2.16498473     5.00526881     0.82523070
     16      C    -1.28566245     4.56755339    -0.17161961
     17      C    -0.63201994     3.33941585    -0.05081427
     18      N     1.08711963     0.87058371     0.73059742
     19      C     2.08845825     1.85321419     0.27700667
     20      H     3.12236926    -0.13113259    -1.12050089
     21      H     5.13028731    -1.48523057    -1.53822368
     22      H     5.71138325    -3.38260695    -0.02934759
     23      H     4.23648143    -3.90891046     1.91310981
     24      H     2.22994459    -2.52371194     2.36635656
     25      H    -1.91931126     2.34008700     2.94461360
     26      H    -3.08129625     4.51234749     2.71995395
     27      H    -2.67644451     5.96026553     0.72658762
     28      H    -1.12049899     5.17585010    -1.05935940
     29      H     0.00220699     3.00193428    -0.86554938
     30      H     1.87186560     2.80538452     0.76403529
     31      H     3.08139586     1.50367631     0.56438419
     32      H     2.04890183     1.99101526    -0.80757864

Total System Charge              0.00000

 *** GO1_GOStep16 ***

 Energy gradients wrt nuclear displacements
 ==========================================

     Atom      Cartesian (a.u./angstrom)
                 X         Y         Z
 ----------------------------------------
     1 C     0.000017 -0.000047 -0.000019
     2 C     0.000042  0.000034  0.000038
     3 C     0.000001 -0.000002  0.000009
     4 C     0.000013  0.000002  0.000001
     5 C     0.000022  0.000030  0.000003
     6 C    -0.000021 -0.000018 -0.000030
     7 C     0.000007 -0.000014 -0.000019
     8 O    -0.000036 -0.000039 -0.000036
     9 C     0.000035 -0.000012  0.000036
    10 O    -0.000026 -0.000022 -0.000018
    11 C    -0.000013  0.000075  0.000052
    12 C     0.000036 -0.000070 -0.000034
    13 C    -0.000037  0.000018  0.000032
    14 C    -0.000012 -0.000034 -0.000005
    15 C     0.000003  0.000008 -0.000007
    16 C    -0.000027  0.000002  0.000016
    17 C     0.000007 -0.000003  0.000005
    18 N    -0.000017  0.000018 -0.000035
    19 C    -0.000008  0.000047 -0.000018
    20 H    -0.000004  0.000017 -0.000005
    21 H     0.000011  0.000019  0.000000
    22 H     0.000008  0.000010 -0.000003
    23 H     0.000017  0.000013  0.000005
    24 H    -0.000003  0.000001 -0.000005
    25 H    -0.000011 -0.000012 -0.000012
    26 H    -0.000011 -0.000021  0.000006
    27 H    -0.000009 -0.000010  0.000007
    28 H     0.000003  0.000000  0.000007
    29 H    -0.000000  0.000019 -0.000003
    30 H    -0.000004 -0.000011  0.000005
    31 H     0.000012  0.000001  0.000017
    32 H     0.000005  0.000001  0.000008
 ----------------------------------------
 
---------------------------------------------------------
Geometry Convergence after Step  16       ** CONVERGED **
---------------------------------------------------------
current energy                               -7.49497192 Hartree
energy change                      -0.00000079     0.00032000    T
constrained gradient max            0.00007990     0.00010000    T
constrained gradient rms            0.00002147     0.00006667    T
gradient max                        0.00007990
gradient rms                        0.00002147
cart. step max                      0.00120207     0.01000000    T
cart. step rms                      0.00038229     0.00666667    T
 
Geometry optimization converged

Optimized geometry:

--------
Geometry
--------
Formula: C16H13NO2
Atoms
  Index Symbol   x (angstrom)   y (angstrom)   z (angstrom)
      1      C     1.35915752    -0.42371519     0.99773285
      2      C     2.55018306    -1.19435712     0.69052560
      3      C     3.37904684    -0.92351435    -0.42494507
      4      C     4.50803309    -1.70479115    -0.67293030
      5      C     4.83053705    -2.77615964     0.16959491
      6      C     4.00017671    -3.07130092     1.26021196
      7      C     2.87254950    -2.29607342     1.52096901
      8      O     0.35574433    -0.97201409     1.68760297
      9      C    -0.70411190     0.10896865     1.93689454
     10      O    -1.69213857    -0.17187739     2.57963315
     11      C    -0.17373867     1.22926445     1.25459090
     12      C    -0.82448032     2.51964097     1.08788919
     13      C    -1.73354301     2.96789712     2.07816870
     14      C    -2.39029146     4.19016815     1.94300921
     15      C    -2.16498473     5.00526881     0.82523070
     16      C    -1.28566245     4.56755339    -0.17161961
     17      C    -0.63201994     3.33941585    -0.05081427
     18      N     1.08711963     0.87058371     0.73059742
     19      C     2.08845825     1.85321419     0.27700667
     20      H     3.12236926    -0.13113259    -1.12050089
     21      H     5.13028731    -1.48523057    -1.53822368
     22      H     5.71138325    -3.38260695    -0.02934759
     23      H     4.23648143    -3.90891046     1.91310981
     24      H     2.22994459    -2.52371194     2.36635656
     25      H    -1.91931126     2.34008700     2.94461360
     26      H    -3.08129625     4.51234749     2.71995395
     27      H    -2.67644451     5.96026553     0.72658762
     28      H    -1.12049899     5.17585010    -1.05935940
     29      H     0.00220699     3.00193428    -0.86554938
     30      H     1.87186560     2.80538452     0.76403529
     31      H     3.08139586     1.50367631     0.56438419
     32      H     2.04890183     1.99101526    -0.80757864

Total System Charge              0.00000

Performing a single point calculation on the final geometry ...

 *** adf ***



 ===========================
 A T T A C H E D   F I L E S
 ===========================
  
 Restart/tmp/amstmp_c5_fragB_opt_kid0.571182512/GO1_GOStep16.rkf*** GO1_GOStep16 ***



 ===============================
 M O D E L   P A R A M E T E R S
 ===============================
  
 DENSITY FUNCTIONAL POTENTIAL (scf)
    LDA:                               Exchange only                           == Not Default ==
    Gradient Corrections:              Becke88 LYP                             == Not Default ==

 SPIN  (restricted / unrestr.)
[...]
     22      H    0.0000039751    0.0000052872   -0.0000013174
     23      H    0.0000090970    0.0000071500    0.0000028100
     24      H   -0.0000014647    0.0000006108   -0.0000024528
     25      H   -0.0000060743   -0.0000065885   -0.0000061941
     26      H   -0.0000056127   -0.0000110419    0.0000032820
     27      H   -0.0000047622   -0.0000054927    0.0000039201
     28      H    0.0000014806    0.0000000289    0.0000034948
     29      H   -0.0000000962    0.0000100407   -0.0000013557
     30      H   -0.0000023306   -0.0000057632    0.0000028644
     31      H    0.0000061546    0.0000007597    0.0000091838
     32      H    0.0000027241    0.0000005822    0.0000041584


--------------
Atomic charges
--------------
  Index   Atom    Charge
      1      C    0.5377
      2      C   -0.1318
      3      C    0.2201
      4      C    0.2321
      5      C    0.2152
      6      C    0.2191
      7      C    0.2486
      8      O   -0.5295
      9      C    0.6035
     10      O   -0.5460
     11      C    0.0466
     12      C   -0.0800
     13      C    0.2374
     14      C    0.2148
     15      C    0.2032
     16      C    0.2274
     17      C    0.2076
     18      N   -0.2892
     19      C    0.8593
     20      H   -0.1982
     21      H   -0.2240
     22      H   -0.2079
     23      H   -0.2128
     24      H   -0.1816
     25      H   -0.1813
     26      H   -0.2226
     27      H   -0.2173
     28      H   -0.2332
     29      H   -0.2136
     30      H   -0.1998
     31      H   -0.2105
     32      H   -0.1935


Dipole moment vector    (Debye):     5.79525323    1.46688460   -2.89318270
              magnitude (Debye):     6.64132641


-----------------------
Molecular orbitals info
-----------------------
n orbitals:              637
n spin:                    1

Note: only printing virtual orbitals with
      energy smaller than HOMO + 100. eV

HOMO (eV):              -4.4849
LUMO (eV):              -2.6852
HOMO-LUMO gap (eV):      1.7998

   Index   Energy (eV)    Occupation
     403       95.1934         0.000       
     402       94.7584         0.000       
     401       94.7071         0.000       
     400       94.4798         0.000       
     399       94.0246         0.000       
     398       93.4341         0.000       
     397       93.3242         0.000       
     396       93.1867         0.000       
     395       93.0760         0.000       
     394       92.3282         0.000       
     393       92.2233         0.000       
     392       91.8640         0.000       
     391       91.4360         0.000       
     390       91.1833         0.000       
     389       91.0579         0.000       
     388       90.7211         0.000       
     387       90.2887         0.000       
     386       89.7464         0.000       
     385       89.4715         0.000       
     384       89.4349         0.000       
     383       88.7189         0.000       
     382       88.5372         0.000       
     381       88.1102         0.000       
     380       87.7355         0.000       
     379       86.9170         0.000       
     378       86.4210         0.000       
     377       86.3208         0.000       
     376       86.1358         0.000       
     375       86.0360         0.000       
     374       85.8948         0.000       
     373       85.3264         0.000       
     372       84.9221         0.000       
     371       84.1111         0.000       
     370       83.8033         0.000       
     369       83.3770         0.000       
     368       83.2512         0.000       
     367       82.8166         0.000       
     366       82.3846         0.000       
     365       82.0307         0.000       
     364       81.9018         0.000       
     363       81.6133         0.000       
     362       80.8828         0.000       
     361       80.6984         0.000       
     360       80.3917         0.000       
     359       80.3148         0.000       
     358       79.9203         0.000       
     357       79.8240         0.000       
     356       79.7219         0.000       
     355       79.4503         0.000       
     354       78.9801         0.000       
     353       78.5829         0.000       
     352       78.3927         0.000       
     351       77.9095         0.000       
     350       77.5995         0.000       
     349       77.2061         0.000       
     348       76.6961         0.000       
     347       76.3943         0.000       
     346       76.0247         0.000       
     345       75.7971         0.000       
     344       75.2339         0.000       
     343       75.1050         0.000       
     342       74.9620         0.000       
     341       74.6019         0.000       
     340       73.9050         0.000       
     339       73.8116         0.000       
     338       73.4327         0.000       
     337       73.1055         0.000       
     336       72.8722         0.000       
     335       72.4316         0.000       
     334       71.9815         0.000       
     333       71.4147         0.000       
     332       71.2691         0.000       
     331       70.5738         0.000       
     330       70.0938         0.000       
     329       69.3777         0.000       
     328       68.7848         0.000       
     327       68.6929         0.000       
     326       68.2503         0.000       
     325       67.8721         0.000       
     324       67.6230         0.000       
     323       67.4114         0.000       
     322       67.0540         0.000       
     321       66.5220         0.000       
     320       65.5839         0.000       
     319       65.5699         0.000       
     318       65.3801         0.000       
     317       65.0801         0.000       
     316       64.5619         0.000       
     315       64.0352         0.000       
     314       63.9478         0.000       
     313       63.7421         0.000       
     312       63.5479         0.000       
     311       62.9999         0.000       
     310       62.7800         0.000       
     309       62.6712         0.000       
     308       62.3311         0.000       
     307       61.8168         0.000       
     306       61.5613         0.000       
     305       61.2698         0.000       
     304       61.0128         0.000       
     303       60.6165         0.000       
     302       59.9794         0.000       
     301       59.2644         0.000       
     300       59.0369         0.000       
     299       58.2202         0.000       
     298       57.8540         0.000       
     297       57.5595         0.000       
     296       57.2507         0.000       
     295       56.1393         0.000       
     294       56.0004         0.000       
     293       55.3408         0.000       
     292       55.1905         0.000       
     291       54.9365         0.000       
     290       54.6487         0.000       
     289       54.2395         0.000       
     288       53.8134         0.000       
     287       53.7651         0.000       
     286       53.0887         0.000       
     285       53.0066         0.000       
     284       52.7401         0.000       
     283       52.3891         0.000       
     282       51.7184         0.000       
     281       51.4476         0.000       
     280       51.3984         0.000       
     279       50.8209         0.000       
     278       50.5463         0.000       
     277       50.4790         0.000       
     276       50.3835         0.000       
     275       50.1088         0.000       
     274       49.8680         0.000       
     273       49.7750         0.000       
     272       49.5504         0.000       
     271       49.2210         0.000       
     270       48.9164         0.000       
     269       48.7964         0.000       
     268       48.4528         0.000       
     267       47.6848         0.000       
     266       47.1559         0.000       
     265       46.5381         0.000       
     264       45.9856         0.000       
     263       45.7369         0.000       
     262       45.5679         0.000       
     261       44.7224         0.000       
     260       44.5859         0.000       
     259       44.1780         0.000       
     258       44.0213         0.000       
     257       43.6535         0.000       
     256       42.8545         0.000       
     255       42.5803         0.000       
     254       42.2708         0.000       
     253       41.8898         0.000       
     252       41.6048         0.000       
     251       41.1094         0.000       
     250       40.9885         0.000       
     249       40.5184         0.000       
     248       40.1105         0.000       
     247       39.8245         0.000       
     246       39.5879         0.000       
     245       39.5624         0.000       
     244       39.3003         0.000       
     243       39.0643         0.000       
     242       38.7835         0.000       
     241       38.4972         0.000       
     240       37.9152         0.000       
     239       37.8829         0.000       
     238       37.4796         0.000       
     237       37.2343         0.000       
     236       37.0037         0.000       
     235       36.9132         0.000       
     234       36.4385         0.000       
     233       36.2818         0.000       
     232       36.1235         0.000       
     231       35.9051         0.000       
     230       35.6704         0.000       
     229       35.3521         0.000       
     228       35.2129         0.000       
     227       34.9868         0.000       
     226       34.7533         0.000       
     225       34.2319         0.000       
     224       33.7589         0.000       
     223       33.4510         0.000       
     222       32.9333         0.000       
     221       32.6691         0.000       
     220       32.1427         0.000       
     219       31.5742         0.000       
     218       31.4062         0.000       
     217       31.2226         0.000       
     216       30.8811         0.000       
     215       30.5635         0.000       
     214       30.0831         0.000       
     213       29.8774         0.000       
     212       29.6407         0.000       
     211       29.5672         0.000       
     210       29.3842         0.000       
     209       29.0530         0.000       
     208       28.9436         0.000       
     207       28.3120         0.000       
     206       28.2373         0.000       
     205       28.0822         0.000       
     204       27.8720         0.000       
     203       27.6530         0.000       
     202       27.4837         0.000       
     201       27.4253         0.000       
     200       26.9895         0.000       
     199       26.9424         0.000       
     198       26.6061         0.000       
     197       26.3228         0.000       
     196       26.2244         0.000       
     195       25.5247         0.000       
     194       25.4828         0.000       
     193       25.0765         0.000       
     192       24.6663         0.000       
     191       24.3836         0.000       
     190       24.2145         0.000       
     189       24.1539         0.000       
     188       23.8538         0.000       
     187       23.6525         0.000       
     186       23.3221         0.000       
     185       22.9472         0.000       
     184       22.8440         0.000       
     183       22.4863         0.000       
     182       21.9509         0.000       
     181       21.7618         0.000       
     180       21.4485         0.000       
     179       21.1706         0.000       
     178       20.9159         0.000       
     177       20.6846         0.000       
     176       20.4221         0.000       
     175       20.2089         0.000       
     174       20.0540         0.000       
     173       19.7814         0.000       
     172       19.4453         0.000       
     171       18.9174         0.000       
     170       18.7744         0.000       
     169       18.6212         0.000       
     168       18.2791         0.000       
     167       17.9665         0.000       
     166       17.8182         0.000       
     165       17.5499         0.000       
     164       17.2633         0.000       
     163       17.1312         0.000       
     162       16.9655         0.000       
     161       16.7632         0.000       
     160       16.6265         0.000       
     159       16.0829         0.000       
     158       15.8380         0.000       
     157       15.3407         0.000       
     156       14.9437         0.000       
     155       14.7522         0.000       
     154       14.7322         0.000       
     153       14.4159         0.000       
     152       14.2241         0.000       
     151       13.8028         0.000       
     150       13.6435         0.000       
     149       13.3227         0.000       
     148       12.9181         0.000       
     147       12.6766         0.000       
     146       12.5537         0.000       
     145       12.2024         0.000       
     144       11.8943         0.000       
     143       11.6204         0.000       
     142       11.4430         0.000       
     141       11.3139         0.000       
     140       11.1179         0.000       
     139       10.9906         0.000       
     138       10.7595         0.000       
     137       10.3833         0.000       
     136       10.2501         0.000       
     135       10.1232         0.000       
     134        9.8918         0.000       
     133        9.6759         0.000       
     132        9.6186         0.000       
     131        9.5332         0.000       
     130        9.3757         0.000       
     129        9.1848         0.000       
     128        9.1121         0.000       
     127        8.9634         0.000       
     126        8.8662         0.000       
     125        8.7051         0.000       
     124        8.6260         0.000       
     123        8.4066         0.000       
     122        8.3314         0.000       
     121        8.0928         0.000       
     120        8.0544         0.000       
     119        7.8874         0.000       
     118        7.6791         0.000       
     117        7.4101         0.000       
     116        7.3493         0.000       
     115        7.1875         0.000       
     114        7.0056         0.000       
     113        6.8178         0.000       
     112        6.7342         0.000       
     111        6.4123         0.000       
     110        6.2616         0.000       
     109        6.0108         0.000       
     108        5.9445         0.000       
     107        5.7517         0.000       
     106        5.4894         0.000       
     105        5.3717         0.000       
     104        5.3040         0.000       
     103        5.2233         0.000       
     102        5.0055         0.000       
     101        4.9585         0.000       
     100        4.8431         0.000       
      99        4.6001         0.000       
      98        4.4897         0.000       
      97        4.4428         0.000       
      96        4.2747         0.000       
      95        3.9761         0.000       
      94        3.9493         0.000       
      93        3.7251         0.000       
      92        3.3674         0.000       
      91        3.2482         0.000       
      90        3.0492         0.000       
      89        2.8994         0.000       
      88        2.6586         0.000       
      87        2.2794         0.000       
      86        2.1610         0.000       
      85        2.1076         0.000       
      84        1.9647         0.000       
      83        1.6603         0.000       
      82        1.2970         0.000       
      81        1.1793         0.000       
      80        1.0235         0.000       
      79        0.9467         0.000       
      78        0.8184         0.000       
      77        0.5395         0.000       
      76        0.5211         0.000       
      75        0.3221         0.000       
      74        0.1158         0.000       
      73       -0.2367         0.000       
      72       -0.6041         0.000       
      71       -0.7567         0.000       
      70       -1.1551         0.000       
      69       -1.2465         0.000       
      68       -1.7231         0.000       
      67       -2.6852         0.000 < LUMO
      66       -4.4849         2.000 < HOMO
      65       -6.2070         2.000       
      64       -6.3510         2.000       
      63       -6.5425         2.000       
      62       -6.8157         2.000       
      61       -7.0047         2.000       
      60       -8.0475         2.000       
      59       -8.3149         2.000       
      58       -8.5159         2.000       
      57       -8.7036         2.000       
      56       -8.8488         2.000       
      55       -9.0644         2.000       
      54       -9.1369         2.000       
      53       -9.4569         2.000       
      52       -9.6060         2.000       
      51      -10.0994         2.000       
      50      -10.1707         2.000       
      49      -10.4224         2.000       
      48      -10.7196         2.000       
      47      -10.7918         2.000       
      46      -10.8918         2.000       
      45      -10.9395         2.000       
      44      -11.0417         2.000       
      43      -11.3934         2.000       
      42      -11.6680         2.000       
      41      -12.0472         2.000       
      40      -12.3189         2.000       
      39      -12.5637         2.000       
      38      -12.9331         2.000       
      37      -13.5411         2.000       
      36      -14.3438         2.000       
      35      -14.5396         2.000       
      34      -14.9760         2.000       
      33      -15.1724         2.000       
      32      -15.7104         2.000       
      31      -16.0593         2.000       
      30      -17.6834         2.000       
      29      -18.3270         2.000       
      28      -18.7432         2.000       
      27      -18.9416         2.000       
      26      -19.1967         2.000       
      25      -19.9119         2.000       
      24      -21.1937         2.000       
      23      -21.8004         2.000       
      22      -24.4261         2.000       
      21      -25.4421         2.000       
      20      -27.8417         2.000       
      19     -269.9681         2.000       
      18     -270.0024         2.000       
      17     -270.0298         2.000       
      16     -270.1226         2.000       
      15     -270.1759         2.000       
      14     -270.5997         2.000       
      13     -270.6138         2.000       
      12     -270.6503         2.000       
      11     -270.6517         2.000       
      10     -270.6679         2.000       
       9     -270.8089         2.000       
       8     -271.1454         2.000       
       7     -271.2412         2.000       
       6     -271.8324         2.000       
       5     -272.7770         2.000       
       4     -273.1479         2.000       
       3     -384.1466         2.000       
       2     -510.6797         2.000       
       1     -512.9751         2.000       

AMS application finished. Exiting.
NORMAL TERMINATION
     Total cpu time:    2501.73
  Total system time:      11.30
 Total elapsed time:    2531.45
NORMAL TERMINATION
