
 *******************************************************************************
 *                                                                             *
 *  --------------------------------                                           *
 *   Amsterdam Modeling Suite (AMS)              2026.103                      *
 *  --------------------------------                                           *
 *                                               r260501 2026-05-01 873454b5   *
 *                                                                             *
 *                                                                             *
 *                              =================                              *
 *                              |               |                              *
 *                              |     A M S     |                              *
 *                              |               |                              *
 *                              =================                              *
 *                                                                             *
 *                                                                             *
 *   Online information and documentation:  https://www.scm.com/support/       *
 *   E-mail:  support@scm.com   info@scm.com                                   *
 *                                                                             *
 *   Scientific publications using AMS results must be properly referenced     *
 *   See the User Manuals (or the web site) for recommended citations          *
 *   The terms and conditions of the End User License Agreement apply to       *
 *   the use of AMS, https://www.scm.com/license-terms/                        *
 *                                                                             *
 **********************  x86_64_linux_intel / intelmpi  ************************
 
 Licensed to: Jong-June Jeon / University of Seoul 2026-06-02 13:44:15
 SCM User ID: u30731
  
 AMS 2026.103  RunTime: Jun03-2026 23:39:04  ShM Nodes: 1  Procs: 1

 AMS jobname: c2_fragB_ts
 AMS jobid  : 857962237

 Start   directory: /gpfs/home1/yeseo1ee/projects/eda-asm-prediction/ADF_800/adf_outputs/batch_007/qmrxn20_sn2_E_A_A_B_C_D/
 Results directory: /gpfs/home1/yeseo1ee/projects/eda-asm-prediction/ADF_800/adf_outputs/batch_007/qmrxn20_sn2_E_A_A_B_C_D/c2_fragB_ts.results/
 Scratch directory: /tmp/amstmp_c2_fragB_ts_kid0.857962237/

 RNG seed: -1144681805 479002340 2014088844 614539593 356631812 687536482 400020985 -1909416188



                      ************************************************************************
                      *  ADF 2026.103  RunTime: Jun03-2026 23:39:04  ShM Nodes: 1  Procs: 1  *
                      ************************************************************************
  

       ****************************
       * SINGLE POINT CALCULATION *
       ****************************

--------
Geometry
--------
Formula: C2H5BrN2O2
Atoms
  Index Symbol   x (angstrom)   y (angstrom)   z (angstrom)
      1      C     0.61782885    -0.09910463    -0.09255663
      2      H     1.48649124     1.78124127     0.21526186
      3     Br     3.56573488     0.00736829    -0.02060813
      4      C     0.52246298     1.38815062    -0.10709779
      5      H     0.86577070    -0.53327385     0.86128946
      6      H    -0.27166437     1.67636539     0.58155987
      7      N     0.45755503    -0.87670811    -1.10751838
      8      H     0.21471310    -0.49008206    -2.00721071
      9      H     0.55425193    -1.87077701    -0.98487967
     10      N     0.21399028     2.06675572    -1.39693000
     11      O     0.20480763     3.28974513    -1.34881085
     12      O    -0.01963674     1.40872409    -2.41299671

Total System Charge              0.00000


----------------
ADF Engine Input
----------------
 
   Basis
     Type TZ2P
     Core None
   End
   XC
     GGA BLYP
     Dispersion GRIMME3 BJDAMP
   End
   Symmetry NOSYM
   NumericalQuality Normal
   Unrestricted No
   SCF
     Iterations 200
     Converge 1.0e-6
   End
   Save TAPE21
 

 Title: *** (NO TITLE) ***

 *** adf ***



 ===========================
 A T T A C H E D   F I L E S
 ===========================
  



 ===============================
 M O D E L   P A R A M E T E R S
 ===============================
  
 DENSITY FUNCTIONAL POTENTIAL (scf)
    LDA:                               Exchange only                           == Not Default ==
    Gradient Corrections:              Becke88 LYP                             == Not Default ==

 SPIN  (restricted / unrestr.)
    Molecule:                          Restricted                               
    Fragments:                         Restricted                               

 OTHER ASPECTS
    Relativistic Corrections:          scalar (ZORA,MAPA)                       

    Nuclear Charge Density Model:      Point Charge Nuclei                      
    Core Treatment:                    Frozen Orbital(s)                        

    Hyperfine or Zeeman Interaction:   ---                                      

 Settings for Grimme D3 dispersion correction

      damping                        BJ
      s6                          1.000
      s8                          2.700
      a1                          0.430
      a2                          4.236

 Other (technical) parameters

      alpha                      14.000
      version                         4
 


 Fragment File(s)
 ----------------
 C:
         file : /gpfs/home1/yeseo1ee/projects/eda-asm-prediction/ADF_800/adf_outputs/batch_007/qmrxn20_sn2_E_A_A_B_C_D/c2_fragB_ts.results/t21.50BA88D5.C
         jobid: 0
         title: Carbon (TZ2P)
 H:
         file : /gpfs/home1/yeseo1ee/projects/eda-asm-prediction/ADF_800/adf_outputs/batch_007/qmrxn20_sn2_E_A_A_B_C_D/c2_fragB_ts.results/t21.6F35CCAB.H
         jobid: 0
         title: Hydrogen (TZ2P)
 Br:
         file : /gpfs/home1/yeseo1ee/projects/eda-asm-prediction/ADF_800/adf_outputs/batch_007/qmrxn20_sn2_E_A_A_B_C_D/c2_fragB_ts.results/t21.42F58B50.Br
         jobid: 0
         title: Bromine (TZ2P)
 N:
         file : /gpfs/home1/yeseo1ee/projects/eda-asm-prediction/ADF_800/adf_outputs/batch_007/qmrxn20_sn2_E_A_A_B_C_D/c2_fragB_ts.results/t21.44EAA48D.N
         jobid: 0
         title: Nitrogen (TZ2P)
 O:
         file : /gpfs/home1/yeseo1ee/projects/eda-asm-prediction/ADF_800/adf_outputs/batch_007/qmrxn20_sn2_E_A_A_B_C_D/c2_fragB_ts.results/t21.6E90ABAE.O
         jobid: 0
         title: Oxygen (TZ2P)



 ===============
 G E O M E T R Y  ***  3D  Molecule  ***
 ===============
  

 ATOMS
 =====                            X Y Z                    CHARGE
                                (Angstrom)             Nucl     +Core       At.Mass
                       --------------------------    ----------------       -------
    1  C               0.6178   -0.0991   -0.0926      6.00      6.00       12.0000
    2  H               1.4865    1.7812    0.2153      1.00      1.00        1.0078
    3  Br              3.5657    0.0074   -0.0206     35.00     35.00       78.9183
    4  C               0.5225    1.3882   -0.1071      6.00      6.00       12.0000
    5  H               0.8658   -0.5333    0.8613      1.00      1.00        1.0078
    6  H              -0.2717    1.6764    0.5816      1.00      1.00        1.0078
    7  N               0.4576   -0.8767   -1.1075      7.00      7.00       14.0031
    8  H               0.2147   -0.4901   -2.0072      1.00      1.00        1.0078
    9  H               0.5543   -1.8708   -0.9849      1.00      1.00        1.0078
   10  N               0.2140    2.0668   -1.3969      7.00      7.00       14.0031
   11  O               0.2048    3.2897   -1.3488      8.00      8.00       15.9949
   12  O              -0.0196    1.4087   -2.4130      8.00      8.00       15.9949


 FRAGMENTS
 =========                                     Atoms in this Fragment     Cart. coord.s (Angstrom)
                                               -------------------------------------------------------
    1  C                                                 1  C            0.6178   -0.0991   -0.0926
    2  C                                                 4  C            0.5225    1.3882   -0.1071
    3  H                                                 2  H            1.4865    1.7812    0.2153
    4  H                                                 5  H            0.8658   -0.5333    0.8613
    5  H                                                 6  H           -0.2717    1.6764    0.5816
    6  H                                                 8  H            0.2147   -0.4901   -2.0072
    7  H                                                 9  H            0.5543   -1.8708   -0.9849
    8  Br                                                3  Br           3.5657    0.0074   -0.0206
    9  N                                                 7  N            0.4576   -0.8767   -1.1075
   10  N                                                10  N            0.2140    2.0668   -1.3969
   11  O                                                11  O            0.2048    3.2897   -1.3488
   12  O                                                12  O           -0.0196    1.4087   -2.4130


 Interatomic Distance Matrix (Angstrom)
 --------------------------------------

   1)     0.000
   2)     2.094   0.000
   3)     2.951   2.743   0.000
   4)     1.490   1.090   3.343   0.000
   5)     1.077   2.482   2.891   2.179   0.000
   6)     2.097   1.799   4.228   1.090   2.501   0.000
   7)     1.289   3.142   3.409   2.477   2.040   3.147   0.000
   8)     1.995   3.423   3.927   2.689   2.942   3.411   1.009   0.000
   9)     1.985   3.956   3.678   3.375   2.301   3.965   1.006   1.751   0.000
  10)     2.560   2.074   4.168   1.490   3.505   2.074   2.968   2.629   3.974   0.000
  11)     3.638   2.523   4.882   2.293   4.465   2.561   4.181   3.837   5.185   1.224
          0.000
  12)     2.840   3.052   4.532   2.369   3.908   3.017   2.675   1.956   3.623   1.233
          2.173   0.000

 Min. Distance =    1.0063
 Max. Distance =    5.1851



 =====================================
 S Y M M E T R Y ,   E L E C T R O N S
 =====================================
  
 Symmetry: NOSYM

 Irreducible Representations, including subspecies
 -------------------------------------------------
 A


 Configuration of Valence Electrons
 ==================================
 ( determined in the SCF procedure )

 Total:   82

 Net Charge: 0 (Nuclei minus Electrons)

 Aufbau principle for MO occupations will be applied through SCF cycle no.     100
 Thereafter, the program will assign electrons to MOs that are spatially
 similar to the occupied MOs in a "reference" cycle ("KeepOrbitals").
 The reference cycle is always the PREVIOUS cycle: it will evolve with
 the SCF procedure.
 ***************************************************************************************************



                                      ****************************************
                                      *  B U I L D : (Fragments, Functions)  *
                                      ****************************************
  



 =======
 S F O s  ***  (Symmetrized Fragment Orbitals)  ***
 =======
  
 SFOs are linear combinations of (valence) Fragment Orbitals (FOs), such that the SFOs transform as the
 irreducible representations of the (molecular) symmetry group. Each SFO is therefore characterized by
 an irrep of the molecule and by a few (or only one) generating FOs.
 The SFOs constitute a symmetry-adapted basis for the Fock matrix. The MO eigenvector coefficients in
 this basis provide a direct interpretation of the MOs in terms of Frontier Orbital Theory.

 The SFOs are combined with auxiliary Core Functions (CFs) to ensure orthogonalization on the (frozen)
 Core Orbitals (COs). The Core-orthogonalized SFOs (CSFOs) constitute the true Fock basis.

 The FOs, and hence also the (C)SFOs are combinations of the elementary basis functions (BAS). The basis
 functions that participate in the description of the SFOs depend on the irrep. The indices of the
 involved functions are printed below for each irrep.
 (The complete list of primitive basis functions is printed in another section)

 Total nr. of (C)SFOs (summation over all irreps) :   267

 NOTE: a (C)SFO that is defined as a combination of more than one FO is usually NOT normalized.



                                       === A ===
 Nr. of SFOs :  267
 Cartesian basis functions that participate in this irrep (total number =   303) :
      1     2     3     4     5     6     9    12     7    10
     13     8    11    14    15    16    17    18    19    20
     21    22    23    24    25    26    27    28    29    30
     31    32    33    34    35    36    39    42    37    40
     43    38    41    44    45    46    47    48    49    50
     51    52    53    54    55    56    57    58    59    60
     61    62    63    64    65    66    67    68    69    70
     71    72    73    74    75    76    77    78    79    80
     81    82    83    84    85    86    87    88    89    90
     91    92    93    94    95    96    97    98    99   100
    101   102   103   104   105   106   107   108   109   110
    111   112   113   114   115   116   117   118   119   120
    121   122   123   130   131   156   157   158   124   127
    132   135   159   162   165   125   128   133   136   160
    163   166   126   129   134   137   161   164   167   138
    144   150   168   139   145   151   169   140   146   152
    170   141   147   153   171   142   148   154   172   143
    149   155   173   174   175   176   177   178   179   180
    181   182   183   184   185   186   187   188   189   192
    195   190   193   196   191   194   197   198   199   200
    201   202   203   204   205   206   207   208   209   210
    211   212   213   214   215   216   217   218   219   222
    225   220   223   226   221   224   227   228   229   230
    231   232   233   234   235   236   237   238   239   240
    241   242   243   244   245   246   247   248   249   252
    255   250   253   256   251   254   257   258   259   260
    261   262   263   264   265   266   267   268   269   270
    271   272   273   274   275   276   277   278   279   282
    285   280   283   286   281   284   287   288   289   290
    291   292   293   294   295   296   297   298   299   300
    301   302   303

    SFO  (index         Fragment          Generating    Expansion in Fragment Orbitals
  indx  incl.CFs)   Occup   Orb.Energy   FragmentType  Coeff.   Orbital     on Fragment
 --------------------------------------------------------------------------------------
     1       1      2.000     -10.066 au  C             1.00      1 S               1
                        (    -273.921 eV)
     2       2      2.000      -0.501 au  C             1.00      2 S               1
                        (     -13.620 eV)
     3       3       --         0.373 au  C             1.00      3 S               1
                        (      10.158 eV)
     4       4       --         5.405 au  C             1.00      4 S               1
                        (     147.073 eV)
     5       5       --        49.848 au  C             1.00      5 S               1
                        (    1356.422 eV)
     6       6      0.667      -0.193 au  C             1.00      1 P:x             1
                        (      -5.239 eV)
     7       7       --         0.169 au  C             1.00      2 P:x             1
                        (       4.589 eV)
     8       8       --         2.013 au  C             1.00      3 P:x             1
                        (      54.789 eV)
     9       9      0.667      -0.193 au  C             1.00      1 P:y             1
                        (      -5.239 eV)
    10      10       --         0.169 au  C             1.00      2 P:y             1
                        (       4.589 eV)
    11      11       --         2.013 au  C             1.00      3 P:y             1
                        (      54.789 eV)
    12      12      0.667      -0.193 au  C             1.00      1 P:z             1
                        (      -5.239 eV)
    13      13       --         0.169 au  C             1.00      2 P:z             1
                        (       4.589 eV)
    14      14       --         2.013 au  C             1.00      3 P:z             1
                        (      54.789 eV)
    15      15       --         1.243 au  C             1.00      1 D:z2            1
                        (      33.824 eV)
    16      16       --         1.243 au  C             1.00      1 D:x2-y2         1
                        (      33.824 eV)
    17      17       --         1.243 au  C             1.00      1 D:xy            1
                        (      33.824 eV)
    18      18       --         1.243 au  C             1.00      1 D:xz            1
                        (      33.824 eV)
    19      19       --         1.243 au  C             1.00      1 D:yz            1
                        (      33.824 eV)
    20      20       --         4.016 au  C             1.00      1 F:z3            1
                        (     109.271 eV)
    21      21       --         4.016 au  C             1.00      1 F:z             1
                        (     109.271 eV)
    22      22       --         4.016 au  C             1.00      1 F:xyz           1
                        (     109.271 eV)
    23      23       --         4.016 au  C             1.00      1 F:z2x           1
                        (     109.271 eV)
    24      24       --         4.016 au  C             1.00      1 F:z2y           1
                        (     109.271 eV)
    25      25       --         4.016 au  C             1.00      1 F:x             1
                        (     109.271 eV)
    26      26       --         4.016 au  C             1.00      1 F:y             1
                        (     109.271 eV)
    27      27      2.000     -10.066 au  C             1.00      1 S               2
                        (    -273.921 eV)
    28      28      2.000      -0.501 au  C             1.00      2 S               2
                        (     -13.620 eV)
    29      29       --         0.373 au  C             1.00      3 S               2
                        (      10.158 eV)
    30      30       --         5.405 au  C             1.00      4 S               2
                        (     147.073 eV)
    31      31       --        49.848 au  C             1.00      5 S               2
                        (    1356.422 eV)
    32      32      0.667      -0.193 au  C             1.00      1 P:x             2
                        (      -5.239 eV)
    33      33       --         0.169 au  C             1.00      2 P:x             2
                        (       4.589 eV)
    34      34       --         2.013 au  C             1.00      3 P:x             2
                        (      54.789 eV)
    35      35      0.667      -0.193 au  C             1.00      1 P:y             2
                        (      -5.239 eV)
    36      36       --         0.169 au  C             1.00      2 P:y             2
                        (       4.589 eV)
    37      37       --         2.013 au  C             1.00      3 P:y             2
                        (      54.789 eV)
    38      38      0.667      -0.193 au  C             1.00      1 P:z             2
                        (      -5.239 eV)
    39      39       --         0.169 au  C             1.00      2 P:z             2
                        (       4.589 eV)
    40      40       --         2.013 au  C             1.00      3 P:z             2
                        (      54.789 eV)
    41      41       --         1.243 au  C             1.00      1 D:z2            2
                        (      33.824 eV)
    42      42       --         1.243 au  C             1.00      1 D:x2-y2         2
                        (      33.824 eV)
    43      43       --         1.243 au  C             1.00      1 D:xy            2
                        (      33.824 eV)
    44      44       --         1.243 au  C             1.00      1 D:xz            2
                        (      33.824 eV)
    45      45       --         1.243 au  C             1.00      1 D:yz            2
                        (      33.824 eV)
    46      46       --         4.016 au  C             1.00      1 F:z3            2
                        (     109.271 eV)
    47      47       --         4.016 au  C             1.00      1 F:z             2
                        (     109.271 eV)
    48      48       --         4.016 au  C             1.00      1 F:xyz           2
                        (     109.271 eV)
    49      49       --         4.016 au  C             1.00      1 F:z2x           2
                        (     109.271 eV)
    50      50       --         4.016 au  C             1.00      1 F:z2y           2
                        (     109.271 eV)
    51      51       --         4.016 au  C             1.00      1 F:x             2
                        (     109.271 eV)
    52      52       --         4.016 au  C             1.00      1 F:y             2
                        (     109.271 eV)
    53      53      1.000      -0.240 au  H             1.00      1 S               3
                        (      -6.532 eV)
    54      54       --         0.088 au  H             1.00      2 S               3
                        (       2.394 eV)
    55      55       --         1.502 au  H             1.00      3 S               3
                        (      40.869 eV)
    56      56       --         0.406 au  H             1.00      1 P:x             3
                        (      11.051 eV)
    57      57       --         0.406 au  H             1.00      1 P:y             3
                        (      11.051 eV)
    58      58       --         0.406 au  H             1.00      1 P:z             3
                        (      11.051 eV)
    59      59       --         2.569 au  H             1.00      1 D:z2            3
                        (      69.917 eV)
    60      60       --         2.569 au  H             1.00      1 D:x2-y2         3
                        (      69.917 eV)
    61      61       --         2.569 au  H             1.00      1 D:xy            3
                        (      69.917 eV)
    62      62       --         2.569 au  H             1.00      1 D:xz            3
                        (      69.917 eV)
    63      63       --         2.569 au  H             1.00      1 D:yz            3
                        (      69.917 eV)
    64      64      1.000      -0.240 au  H             1.00      1 S               4
                        (      -6.532 eV)
    65      65       --         0.088 au  H             1.00      2 S               4
                        (       2.394 eV)
    66      66       --         1.502 au  H             1.00      3 S               4
                        (      40.869 eV)
    67      67       --         0.406 au  H             1.00      1 P:x             4
                        (      11.051 eV)
    68      68       --         0.406 au  H             1.00      1 P:y             4
                        (      11.051 eV)
    69      69       --         0.406 au  H             1.00      1 P:z             4
                        (      11.051 eV)
    70      70       --         2.569 au  H             1.00      1 D:z2            4
                        (      69.917 eV)
    71      71       --         2.569 au  H             1.00      1 D:x2-y2         4
                        (      69.917 eV)
    72      72       --         2.569 au  H             1.00      1 D:xy            4
                        (      69.917 eV)
    73      73       --         2.569 au  H             1.00      1 D:xz            4
                        (      69.917 eV)
    74      74       --         2.569 au  H             1.00      1 D:yz            4
                        (      69.917 eV)
    75      75      1.000      -0.240 au  H             1.00      1 S               5
                        (      -6.532 eV)
    76      76       --         0.088 au  H             1.00      2 S               5
                        (       2.394 eV)
    77      77       --         1.502 au  H             1.00      3 S               5
                        (      40.869 eV)
    78      78       --         0.406 au  H             1.00      1 P:x             5
                        (      11.051 eV)
    79      79       --         0.406 au  H             1.00      1 P:y             5
                        (      11.051 eV)
    80      80       --         0.406 au  H             1.00      1 P:z             5
                        (      11.051 eV)
    81      81       --         2.569 au  H             1.00      1 D:z2            5
                        (      69.917 eV)
    82      82       --         2.569 au  H             1.00      1 D:x2-y2         5
                        (      69.917 eV)
    83      83       --         2.569 au  H             1.00      1 D:xy            5
                        (      69.917 eV)
    84      84       --         2.569 au  H             1.00      1 D:xz            5
                        (      69.917 eV)
    85      85       --         2.569 au  H             1.00      1 D:yz            5
                        (      69.917 eV)
    86      86      1.000      -0.240 au  H             1.00      1 S               6
                        (      -6.532 eV)
    87      87       --         0.088 au  H             1.00      2 S               6
                        (       2.394 eV)
    88      88       --         1.502 au  H             1.00      3 S               6
                        (      40.869 eV)
    89      89       --         0.406 au  H             1.00      1 P:x             6
                        (      11.051 eV)
    90      90       --         0.406 au  H             1.00      1 P:y             6
                        (      11.051 eV)
    91      91       --         0.406 au  H             1.00      1 P:z             6
                        (      11.051 eV)
    92      92       --         2.569 au  H             1.00      1 D:z2            6
                        (      69.917 eV)
    93      93       --         2.569 au  H             1.00      1 D:x2-y2         6
                        (      69.917 eV)
    94      94       --         2.569 au  H             1.00      1 D:xy            6
                        (      69.917 eV)
    95      95       --         2.569 au  H             1.00      1 D:xz            6
                        (      69.917 eV)
    96      96       --         2.569 au  H             1.00      1 D:yz            6
                        (      69.917 eV)
    97      97      1.000      -0.240 au  H             1.00      1 S               7
                        (      -6.532 eV)
    98      98       --         0.088 au  H             1.00      2 S               7
                        (       2.394 eV)
    99      99       --         1.502 au  H             1.00      3 S               7
                        (      40.869 eV)
   100     100       --         0.406 au  H             1.00      1 P:x             7
                        (      11.051 eV)
   101     101       --         0.406 au  H             1.00      1 P:y             7
                        (      11.051 eV)
   102     102       --         0.406 au  H             1.00      1 P:z             7
                        (      11.051 eV)
   103     103       --         2.569 au  H             1.00      1 D:z2            7
                        (      69.917 eV)
   104     104       --         2.569 au  H             1.00      1 D:x2-y2         7
                        (      69.917 eV)
   105     105       --         2.569 au  H             1.00      1 D:xy            7
                        (      69.917 eV)
   106     106       --         2.569 au  H             1.00      1 D:xz            7
                        (      69.917 eV)
   107     107       --         2.569 au  H             1.00      1 D:yz            7
                        (      69.917 eV)
   108     108      2.000    -488.642 au  Br            1.00      1 S               8
                        (  -13296.634 eV)
   109     109      2.000     -63.585 au  Br            1.00      2 S               8
                        (   -1730.246 eV)
   110     110      2.000      -8.709 au  Br            1.00      3 S               8
                        (    -236.987 eV)
   111     111      2.000      -0.733 au  Br            1.00      4 S               8
                        (     -19.946 eV)
   112     112       --         0.224 au  Br            1.00      5 S               8
                        (       6.099 eV)
   113     113       --         2.414 au  Br            1.00      6 S               8
                        (      65.683 eV)
   114     114       --        13.546 au  Br            1.00      7 S               8
                        (     368.609 eV)
   115     115       --       615.209 au  Br            1.00      8 S               8
                        (   16740.684 eV)
   116     116      2.000     -56.116 au  Br            1.00      1 P:x             8
                        (   -1526.987 eV)
   117     117      2.000      -6.365 au  Br            1.00      2 P:x             8
                        (    -173.205 eV)
   118     118      1.667      -0.284 au  Br            1.00      3 P:x             8
                        (      -7.716 eV)
   119     119       --         0.137 au  Br            1.00      4 P:x             8
                        (       3.720 eV)
   120     120       --         1.208 au  Br            1.00      5 P:x             8
                        (      32.874 eV)
   121     121       --         8.734 au  Br            1.00      6 P:x             8
                        (     237.661 eV)
   122     122       --        95.627 au  Br            1.00      7 P:x             8
                        (    2602.141 eV)
   123     123      2.000     -56.116 au  Br            1.00      1 P:y             8
                        (   -1526.987 eV)
   124     124      2.000      -6.365 au  Br            1.00      2 P:y             8
                        (    -173.205 eV)
   125     125      1.667      -0.284 au  Br            1.00      3 P:y             8
                        (      -7.716 eV)
   126     126       --         0.137 au  Br            1.00      4 P:y             8
                        (       3.720 eV)
   127     127       --         1.208 au  Br            1.00      5 P:y             8
                        (      32.874 eV)
   128     128       --         8.734 au  Br            1.00      6 P:y             8
                        (     237.661 eV)
   129     129       --        95.627 au  Br            1.00      7 P:y             8
                        (    2602.141 eV)
   130     130      2.000     -56.116 au  Br            1.00      1 P:z             8
                        (   -1526.987 eV)
   131     131      2.000      -6.365 au  Br            1.00      2 P:z             8
                        (    -173.205 eV)
   132     132      1.667      -0.284 au  Br            1.00      3 P:z             8
                        (      -7.716 eV)
   133     133       --         0.137 au  Br            1.00      4 P:z             8
                        (       3.720 eV)
   134     134       --         1.208 au  Br            1.00      5 P:z             8
                        (      32.874 eV)
   135     135       --         8.734 au  Br            1.00      6 P:z             8
                        (     237.661 eV)
   136     136       --        95.627 au  Br            1.00      7 P:z             8
                        (    2602.141 eV)
   137     137      2.000      -2.452 au  Br            1.00      1 D:z2            8
                        (     -66.719 eV)
   138     138       --         0.270 au  Br            1.00      2 D:z2            8
                        (       7.341 eV)
   139     139       --         2.706 au  Br            1.00      3 D:z2            8
                        (      73.633 eV)
   140     140       --        20.525 au  Br            1.00      4 D:z2            8
                        (     558.519 eV)
   141     141      2.000      -2.452 au  Br            1.00      1 D:x2-y2         8
                        (     -66.719 eV)
   142     142       --         0.270 au  Br            1.00      2 D:x2-y2         8
                        (       7.341 eV)
   143     143       --         2.706 au  Br            1.00      3 D:x2-y2         8
                        (      73.633 eV)
   144     144       --        20.525 au  Br            1.00      4 D:x2-y2         8
                        (     558.519 eV)
   145     145      2.000      -2.452 au  Br            1.00      1 D:xy            8
                        (     -66.719 eV)
   146     146       --         0.270 au  Br            1.00      2 D:xy            8
                        (       7.341 eV)
   147     147       --         2.706 au  Br            1.00      3 D:xy            8
                        (      73.633 eV)
   148     148       --        20.525 au  Br            1.00      4 D:xy            8
                        (     558.519 eV)
   149     149      2.000      -2.452 au  Br            1.00      1 D:xz            8
                        (     -66.719 eV)
   150     150       --         0.270 au  Br            1.00      2 D:xz            8
                        (       7.341 eV)
   151     151       --         2.706 au  Br            1.00      3 D:xz            8
                        (      73.633 eV)
   152     152       --        20.525 au  Br            1.00      4 D:xz            8
                        (     558.519 eV)
   153     153      2.000      -2.452 au  Br            1.00      1 D:yz            8
                        (     -66.719 eV)
   154     154       --         0.270 au  Br            1.00      2 D:yz            8
                        (       7.341 eV)
   155     155       --         2.706 au  Br            1.00      3 D:yz            8
                        (      73.633 eV)
   156     156       --        20.525 au  Br            1.00      4 D:yz            8
                        (     558.519 eV)
   157     157       --         0.857 au  Br            1.00      1 F:z3            8
                        (      23.313 eV)
   158     158       --         0.857 au  Br            1.00      1 F:z             8
                        (      23.313 eV)
   159     159       --         0.857 au  Br            1.00      1 F:xyz           8
                        (      23.313 eV)
   160     160       --         0.857 au  Br            1.00      1 F:z2x           8
                        (      23.313 eV)
   161     161       --         0.857 au  Br            1.00      1 F:z2y           8
                        (      23.313 eV)
   162     162       --         0.857 au  Br            1.00      1 F:x             8
                        (      23.313 eV)
   163     163       --         0.857 au  Br            1.00      1 F:y             8
                        (      23.313 eV)
   164     164      2.000     -14.160 au  N             1.00      1 S               9
                        (    -385.319 eV)
   165     165      2.000      -0.678 au  N             1.00      2 S               9
                        (     -18.450 eV)
   166     166       --         0.517 au  N             1.00      3 S               9
                        (      14.073 eV)
   167     167       --         6.872 au  N             1.00      4 S               9
                        (     186.990 eV)
   168     168       --        63.432 au  N             1.00      5 S               9
                        (    1726.082 eV)
   169     169      1.000      -0.260 au  N             1.00      1 P:x             9
                        (      -7.062 eV)
   170     170       --         0.281 au  N             1.00      2 P:x             9
                        (       7.649 eV)
   171     171       --         3.275 au  N             1.00      3 P:x             9
                        (      89.105 eV)
   172     172      1.000      -0.260 au  N             1.00      1 P:y             9
                        (      -7.062 eV)
   173     173       --         0.281 au  N             1.00      2 P:y             9
                        (       7.649 eV)
   174     174       --         3.275 au  N             1.00      3 P:y             9
                        (      89.105 eV)
   175     175      1.000      -0.260 au  N             1.00      1 P:z             9
                        (      -7.062 eV)
   176     176       --         0.281 au  N             1.00      2 P:z             9
                        (       7.649 eV)
   177     177       --         3.275 au  N             1.00      3 P:z             9
                        (      89.105 eV)
   178     178       --         1.250 au  N             1.00      1 D:z2            9
                        (      34.005 eV)
   179     179       --         1.250 au  N             1.00      1 D:x2-y2         9
                        (      34.005 eV)
   180     180       --         1.250 au  N             1.00      1 D:xy            9
                        (      34.005 eV)
   181     181       --         1.250 au  N             1.00      1 D:xz            9
                        (      34.005 eV)
   182     182       --         1.250 au  N             1.00      1 D:yz            9
                        (      34.005 eV)
   183     183       --         4.013 au  N             1.00      1 F:z3            9
                        (     109.190 eV)
   184     184       --         4.013 au  N             1.00      1 F:z             9
                        (     109.190 eV)
   185     185       --         4.013 au  N             1.00      1 F:xyz           9
                        (     109.190 eV)
   186     186       --         4.013 au  N             1.00      1 F:z2x           9
                        (     109.190 eV)
   187     187       --         4.013 au  N             1.00      1 F:z2y           9
                        (     109.190 eV)
   188     188       --         4.013 au  N             1.00      1 F:x             9
                        (     109.190 eV)
   189     189       --         4.013 au  N             1.00      1 F:y             9
                        (     109.190 eV)
   190     190      2.000     -14.160 au  N             1.00      1 S              10
                        (    -385.319 eV)
   191     191      2.000      -0.678 au  N             1.00      2 S              10
                        (     -18.450 eV)
   192     192       --         0.517 au  N             1.00      3 S              10
                        (      14.073 eV)
   193     193       --         6.872 au  N             1.00      4 S              10
                        (     186.990 eV)
   194     194       --        63.432 au  N             1.00      5 S              10
                        (    1726.082 eV)
   195     195      1.000      -0.260 au  N             1.00      1 P:x            10
                        (      -7.062 eV)
   196     196       --         0.281 au  N             1.00      2 P:x            10
                        (       7.649 eV)
   197     197       --         3.275 au  N             1.00      3 P:x            10
                        (      89.105 eV)
   198     198      1.000      -0.260 au  N             1.00      1 P:y            10
                        (      -7.062 eV)
   199     199       --         0.281 au  N             1.00      2 P:y            10
                        (       7.649 eV)
   200     200       --         3.275 au  N             1.00      3 P:y            10
                        (      89.105 eV)
   201     201      1.000      -0.260 au  N             1.00      1 P:z            10
                        (      -7.062 eV)
   202     202       --         0.281 au  N             1.00      2 P:z            10
                        (       7.649 eV)
   203     203       --         3.275 au  N             1.00      3 P:z            10
                        (      89.105 eV)
   204     204       --         1.250 au  N             1.00      1 D:z2           10
                        (      34.005 eV)
   205     205       --         1.250 au  N             1.00      1 D:x2-y2        10
                        (      34.005 eV)
   206     206       --         1.250 au  N             1.00      1 D:xy           10
                        (      34.005 eV)
   207     207       --         1.250 au  N             1.00      1 D:xz           10
                        (      34.005 eV)
   208     208       --         1.250 au  N             1.00      1 D:yz           10
                        (      34.005 eV)
   209     209       --         4.013 au  N             1.00      1 F:z3           10
                        (     109.190 eV)
   210     210       --         4.013 au  N             1.00      1 F:z            10
                        (     109.190 eV)
   211     211       --         4.013 au  N             1.00      1 F:xyz          10
                        (     109.190 eV)
   212     212       --         4.013 au  N             1.00      1 F:z2x          10
                        (     109.190 eV)
   213     213       --         4.013 au  N             1.00      1 F:z2y          10
                        (     109.190 eV)
   214     214       --         4.013 au  N             1.00      1 F:x            10
                        (     109.190 eV)
   215     215       --         4.013 au  N             1.00      1 F:y            10
                        (     109.190 eV)
   216     216      2.000     -18.941 au  O             1.00      1 S              11
                        (    -515.403 eV)
   217     217      2.000      -0.876 au  O             1.00      2 S              11
                        (     -23.838 eV)
   218     218       --         0.791 au  O             1.00      3 S              11
                        (      21.524 eV)
   219     219       --        13.422 au  O             1.00      4 S              11
                        (     365.226 eV)
   220     220       --       121.561 au  O             1.00      5 S              11
                        (    3307.838 eV)
   221     221      1.333      -0.331 au  O             1.00      1 P:x            11
                        (      -9.020 eV)
   222     222       --         0.347 au  O             1.00      2 P:x            11
                        (       9.437 eV)
   223     223       --         3.820 au  O             1.00      3 P:x            11
                        (     103.939 eV)
   224     224      1.333      -0.331 au  O             1.00      1 P:y            11
                        (      -9.020 eV)
   225     225       --         0.347 au  O             1.00      2 P:y            11
                        (       9.437 eV)
   226     226       --         3.820 au  O             1.00      3 P:y            11
                        (     103.939 eV)
   227     227      1.333      -0.331 au  O             1.00      1 P:z            11
                        (      -9.020 eV)
   228     228       --         0.347 au  O             1.00      2 P:z            11
                        (       9.437 eV)
   229     229       --         3.820 au  O             1.00      3 P:z            11
                        (     103.939 eV)
   230     230       --         1.071 au  O             1.00      1 D:z2           11
                        (      29.134 eV)
   231     231       --         1.071 au  O             1.00      1 D:x2-y2        11
                        (      29.134 eV)
   232     232       --         1.071 au  O             1.00      1 D:xy           11
                        (      29.134 eV)
   233     233       --         1.071 au  O             1.00      1 D:xz           11
                        (      29.134 eV)
   234     234       --         1.071 au  O             1.00      1 D:yz           11
                        (      29.134 eV)
   235     235       --         3.359 au  O             1.00      1 F:z3           11
                        (      91.410 eV)
   236     236       --         3.359 au  O             1.00      1 F:z            11
                        (      91.410 eV)
   237     237       --         3.359 au  O             1.00      1 F:xyz          11
                        (      91.410 eV)
   238     238       --         3.359 au  O             1.00      1 F:z2x          11
                        (      91.410 eV)
   239     239       --         3.359 au  O             1.00      1 F:z2y          11
                        (      91.410 eV)
   240     240       --         3.359 au  O             1.00      1 F:x            11
                        (      91.410 eV)
   241     241       --         3.359 au  O             1.00      1 F:y            11
                        (      91.410 eV)
   242     242      2.000     -18.941 au  O             1.00      1 S              12
                        (    -515.403 eV)
   243     243      2.000      -0.876 au  O             1.00      2 S              12
                        (     -23.838 eV)
   244     244       --         0.791 au  O             1.00      3 S              12
                        (      21.524 eV)
   245     245       --        13.422 au  O             1.00      4 S              12
                        (     365.226 eV)
   246     246       --       121.561 au  O             1.00      5 S              12
                        (    3307.838 eV)
   247     247      1.333      -0.331 au  O             1.00      1 P:x            12
                        (      -9.020 eV)
   248     248       --         0.347 au  O             1.00      2 P:x            12
                        (       9.437 eV)
   249     249       --         3.820 au  O             1.00      3 P:x            12
                        (     103.939 eV)
   250     250      1.333      -0.331 au  O             1.00      1 P:y            12
                        (      -9.020 eV)
   251     251       --         0.347 au  O             1.00      2 P:y            12
                        (       9.437 eV)
   252     252       --         3.820 au  O             1.00      3 P:y            12
                        (     103.939 eV)
   253     253      1.333      -0.331 au  O             1.00      1 P:z            12
                        (      -9.020 eV)
   254     254       --         0.347 au  O             1.00      2 P:z            12
                        (       9.437 eV)
   255     255       --         3.820 au  O             1.00      3 P:z            12
                        (     103.939 eV)
   256     256       --         1.071 au  O             1.00      1 D:z2           12
                        (      29.134 eV)
   257     257       --         1.071 au  O             1.00      1 D:x2-y2        12
                        (      29.134 eV)
   258     258       --         1.071 au  O             1.00      1 D:xy           12
                        (      29.134 eV)
   259     259       --         1.071 au  O             1.00      1 D:xz           12
                        (      29.134 eV)
   260     260       --         1.071 au  O             1.00      1 D:yz           12
                        (      29.134 eV)
   261     261       --         3.359 au  O             1.00      1 F:z3           12
                        (      91.410 eV)
   262     262       --         3.359 au  O             1.00      1 F:z            12
                        (      91.410 eV)
   263     263       --         3.359 au  O             1.00      1 F:xyz          12
                        (      91.410 eV)
   264     264       --         3.359 au  O             1.00      1 F:z2x          12
                        (      91.410 eV)
   265     265       --         3.359 au  O             1.00      1 F:z2y          12
                        (      91.410 eV)
   266     266       --         3.359 au  O             1.00      1 F:x            12
                        (      91.410 eV)
   267     267       --         3.359 au  O             1.00      1 F:y            12
                        (      91.410 eV)



 ================================
 (Slater-type)  F U N C T I O N S  ***  (Basis and Fit)  ***
 ================================
  

 Atom Type    1  (C)
 ==============

 Valence Basis Sets:  10
 -----------------------
   1 S    7.680000
   1 S    5.000000
   2 S    1.280000
   2 S    2.100000
   2 S    4.600000
   2 P    0.820000
   2 P    1.480000
   2 P    2.940000
   3 D    2.200000
   4 F    3.300000

 Atom Type    2  (H)
 ==============

 Valence Basis Sets:   5
 -----------------------
   1 S    0.690000
   1 S    0.920000
   1 S    1.580000
   2 P    1.250000
   3 D    2.500000

 Atom Type    3  (Br)
 ==============

 Valence Basis Sets:  20
 -----------------------
   1 S   41.300000
   1 S   32.800000
   2 S   13.900000
   2 P   19.450000
   2 P   13.100000
   3 S    7.200000
   3 S    4.950000
   3 P    7.900000
   3 P    5.050000
   3 D   10.900000
   3 D    6.050000
   3 D    3.500000
   4 S    4.500000
   4 S    2.800000
   4 S    1.800000
   4 P    3.250000
   4 P    1.950000
   4 P    1.200000
   4 D    1.800000
   4 F    1.800000

 Atom Type    4  (N)
 ==============

 Valence Basis Sets:  10
 -----------------------
   1 S    8.740000
   1 S    5.900000
   2 S    5.150000
   2 S    2.500000
   2 S    1.500000
   2 P    3.680000
   2 P    1.880000
   2 P    1.000000
   3 D    2.200000
   4 F    3.300000

 Atom Type    5  (O)
 ==============

 Valence Basis Sets:  10
 -----------------------
   1 S    9.800000
   1 S    6.800000
   2 S    7.580000
   2 S    2.880000
   2 S    1.720000
   2 P    4.080000
   2 P    2.080000
   2 P    1.120000
   3 D    2.000000
   4 F    3.000000


 BAS: List of all Elementary Cartesian Basis Functions
 =====================================================

 The numbering in the list below (to the right of the function characteristics) is referred
 to in print-outs of MO eigenvectors and Mulliken populations in the BAS representation
 (as contrasted to the SFO representation).

 Notes:
 1. The functions are characterized by a polynomial prefactor (powers of x,y,z and r) and
    an exponential decay factor alpha.
 2. Since the basis sets are specific for an atom TYPE, the individual functions occur on
    all atoms of that type.
 3. The word 'Core' in the left margin signals that it is a Core Function (CF) : not a
    degree of freedom in the valence set, but only used to ensure orthogonalization of
    the other valence basis functions on the frozen Core Orbitals.


 (power of) X  Y  Z  R     Alpha  on Atom
            ==========     =====     ==========

 C                                    1    2
                                  ---------------------------------------------------------------------------
            0  0  0  0     7.680      1   31
            0  0  0  0     5.000      2   32
            0  0  0  1     1.280      3   33
            0  0  0  1     2.100      4   34
            0  0  0  1     4.600      5   35
            1  0  0  0     0.820      6   36
            0  1  0  0     0.820      7   37
            0  0  1  0     0.820      8   38
            1  0  0  0     1.480      9   39
            0  1  0  0     1.480     10   40
            0  0  1  0     1.480     11   41
            1  0  0  0     2.940     12   42
            0  1  0  0     2.940     13   43
            0  0  1  0     2.940     14   44
            2  0  0  0     2.200     15   45
            1  1  0  0     2.200     16   46
            1  0  1  0     2.200     17   47
            0  2  0  0     2.200     18   48
            0  1  1  0     2.200     19   49
            0  0  2  0     2.200     20   50
            3  0  0  0     3.300     21   51
            2  1  0  0     3.300     22   52
            2  0  1  0     3.300     23   53
            1  2  0  0     3.300     24   54
            1  1  1  0     3.300     25   55
            1  0  2  0     3.300     26   56
            0  3  0  0     3.300     27   57
            0  2  1  0     3.300     28   58
            0  1  2  0     3.300     29   59
            0  0  3  0     3.300     30   60

 H                                    3    4    5    6    7
                                  ---------------------------------------------------------------------------
            0  0  0  0     0.690     61   73   85   97  109
            0  0  0  0     0.920     62   74   86   98  110
            0  0  0  0     1.580     63   75   87   99  111
            1  0  0  0     1.250     64   76   88  100  112
            0  1  0  0     1.250     65   77   89  101  113
            0  0  1  0     1.250     66   78   90  102  114
            2  0  0  0     2.500     67   79   91  103  115
            1  1  0  0     2.500     68   80   92  104  116
            1  0  1  0     2.500     69   81   93  105  117
            0  2  0  0     2.500     70   82   94  106  118
            0  1  1  0     2.500     71   83   95  107  119
            0  0  2  0     2.500     72   84   96  108  120

 Br                                   8
                                  ---------------------------------------------------------------------------
            0  0  0  0    41.300    121
            0  0  0  0    32.800    122
            0  0  0  1    13.900    123
            1  0  0  0    19.450    124
            0  1  0  0    19.450    125
            0  0  1  0    19.450    126
            1  0  0  0    13.100    127
            0  1  0  0    13.100    128
            0  0  1  0    13.100    129
            0  0  0  2     7.200    130
            0  0  0  2     4.950    131
            1  0  0  1     7.900    132
            0  1  0  1     7.900    133
            0  0  1  1     7.900    134
            1  0  0  1     5.050    135
            0  1  0  1     5.050    136
            0  0  1  1     5.050    137
            2  0  0  0    10.900    138
            1  1  0  0    10.900    139
            1  0  1  0    10.900    140
            0  2  0  0    10.900    141
            0  1  1  0    10.900    142
            0  0  2  0    10.900    143
            2  0  0  0     6.050    144
            1  1  0  0     6.050    145
            1  0  1  0     6.050    146
            0  2  0  0     6.050    147
            0  1  1  0     6.050    148
            0  0  2  0     6.050    149
            2  0  0  0     3.500    150
            1  1  0  0     3.500    151
            1  0  1  0     3.500    152
            0  2  0  0     3.500    153
            0  1  1  0     3.500    154
            0  0  2  0     3.500    155
            0  0  0  3     4.500    156
            0  0  0  3     2.800    157
            0  0  0  3     1.800    158
            1  0  0  2     3.250    159
            0  1  0  2     3.250    160
            0  0  1  2     3.250    161
            1  0  0  2     1.950    162
            0  1  0  2     1.950    163
            0  0  1  2     1.950    164
            1  0  0  2     1.200    165
            0  1  0  2     1.200    166
            0  0  1  2     1.200    167
            2  0  0  1     1.800    168
            1  1  0  1     1.800    169
            1  0  1  1     1.800    170
            0  2  0  1     1.800    171
            0  1  1  1     1.800    172
            0  0  2  1     1.800    173
            3  0  0  0     1.800    174
            2  1  0  0     1.800    175
            2  0  1  0     1.800    176
            1  2  0  0     1.800    177
            1  1  1  0     1.800    178
            1  0  2  0     1.800    179
            0  3  0  0     1.800    180
            0  2  1  0     1.800    181
            0  1  2  0     1.800    182
            0  0  3  0     1.800    183

 N                                    9   10
                                  ---------------------------------------------------------------------------
            0  0  0  0     8.740    184  214
            0  0  0  0     5.900    185  215
            0  0  0  1     5.150    186  216
            0  0  0  1     2.500    187  217
            0  0  0  1     1.500    188  218
            1  0  0  0     3.680    189  219
            0  1  0  0     3.680    190  220
            0  0  1  0     3.680    191  221
            1  0  0  0     1.880    192  222
            0  1  0  0     1.880    193  223
            0  0  1  0     1.880    194  224
            1  0  0  0     1.000    195  225
            0  1  0  0     1.000    196  226
            0  0  1  0     1.000    197  227
            2  0  0  0     2.200    198  228
            1  1  0  0     2.200    199  229
            1  0  1  0     2.200    200  230
            0  2  0  0     2.200    201  231
            0  1  1  0     2.200    202  232
            0  0  2  0     2.200    203  233
            3  0  0  0     3.300    204  234
            2  1  0  0     3.300    205  235
            2  0  1  0     3.300    206  236
            1  2  0  0     3.300    207  237
            1  1  1  0     3.300    208  238
            1  0  2  0     3.300    209  239
            0  3  0  0     3.300    210  240
            0  2  1  0     3.300    211  241
            0  1  2  0     3.300    212  242
            0  0  3  0     3.300    213  243

 O                                   11   12
                                  ---------------------------------------------------------------------------
            0  0  0  0     9.800    244  274
            0  0  0  0     6.800    245  275
            0  0  0  1     7.580    246  276
            0  0  0  1     2.880    247  277
            0  0  0  1     1.720    248  278
            1  0  0  0     4.080    249  279
            0  1  0  0     4.080    250  280
            0  0  1  0     4.080    251  281
            1  0  0  0     2.080    252  282
            0  1  0  0     2.080    253  283
            0  0  1  0     2.080    254  284
            1  0  0  0     1.120    255  285
            0  1  0  0     1.120    256  286
            0  0  1  0     1.120    257  287
            2  0  0  0     2.000    258  288
            1  1  0  0     2.000    259  289
            1  0  1  0     2.000    260  290
            0  2  0  0     2.000    261  291
            0  1  1  0     2.000    262  292
            0  0  2  0     2.000    263  293
            3  0  0  0     3.000    264  294
            2  1  0  0     3.000    265  295
            2  0  1  0     3.000    266  296
            1  2  0  0     3.000    267  297
            1  1  1  0     3.000    268  298
            1  0  2  0     3.000    269  299
            0  3  0  0     3.000    270  300
            0  2  1  0     3.000    271  301
            0  1  2  0     3.000    272  302
            0  0  3  0     3.000    273  303

 Total number of charge fitting functions (nprimf)       924
 Total number of Cartesian basis functions (naos)        303
 Total number of Cartesian core functions  (ncos)          0

 ***************************************************************************************************



                                              ***********************
                                              *  T E C H N I C A L  *
                                              ***********************
  



 =============================================================
 P A R A L L E L I Z A T I O N  and  V E C T O R I Z A T I O N
 =============================================================
  
 Nr of parallel processes:                                1
 Maximum vector length in NumInt loops:                 128



 =====================
 S C F   U P D A T E S
 =====================
  
 Max. nr. of cycles:                               200
 Convergence criterion:                              0.0000010000
   secondary criterion:                              0.0010000000

 Mix parameter (when DIIS does not apply):           0.2000000000
 Mixed ADIIS+SDIIS will be used                  
    Max number of expansion vectors:                10
    Pure ADIIS when Max([F,P]) is above              0.1000000000
    Pure SDIIS when Max([F,P]) is below              0.0010000000
 Automatic ElectronSmearing (in case of problematic SCF convergence) disabled



 =================
 P R E C I S I O N  ***  (General: NumInt, NeglectFunctionTails, ...)  ***
 =================
  

 NumInt:           Target precision:                 4.0000000000
 -------           Initial precision:                4.0000000000
                   Min. precision (optimization):    4.0000000000

 Neglect Functions:          Basis functions:        0.1000000000E-05
 ------------------          Fit functions:          0.1000000000E-05



 ===========================
 L I N E A R   S C A L I N G
 ===========================
  

 Cut-off radii density fit:                        0.1000000000E-07
 Overlap cut-off criterion AO matrix elements:     0.1000000000E-05
 Cut-offs for Coulomb potential and fitted density:0.1000000000E-07
 Cut-off criterion for Coulomb multipole terms:    0.1000000000E-07
 Progressive Convergence parameter:                 0.000000000    
 ***************************************************************************************************



                                            ***************************
                                            *  C O M P U T A T I O N  *
                                            ***************************
  

 Number of elements of the density matrix on this node (used, total):     46056     46056



 ===========================================
 Numerical Integration : Fuzzy Cells (Becke)
 ===========================================
  
 Becke grid quality: NORMAL         
  
 Lebedev angular grid order:             min:  11 max:  23
 Nr. of radial points:                   min:  46 max:  77

 Total nr. of points:      81814
 Nr. of blocks:              640
 Block length:               128
 Nr. of dummy points:        106


 Test of Precision of the Numerical Integration Grid
 ===================================================

 Integral of the Total Core Density:                   0.00000000000000



 ========================
 Density Fitting (zlmFit)
 ========================
  
 ZlmFit Fit Quality: NORMAL         
  
 Max L-expansion:                        min:   6 max:   7
 Nr. of radial interpolation points:     min:  39 max:  72



 =====
 S C F  ***  ScaSCF  ***
 =====
  
 Initial density matrix is calculated as sum of fragments

 CYCLE    1
 SCF Error: norm([F,P])=      6.259520046940, max([F,P])=      1.334972124972
 orbitals (Q,E):
 ---------------
 A :32...51          ( 2.00    -0.5628)  ( 2.00    -0.5131)  ( 2.00    -0.5111)  ( 2.00    -0.4673)
                     ( 2.00    -0.3921)  ( 2.00    -0.3877)  ( 2.00    -0.3778)  ( 2.00    -0.2946)
                     ( 2.00    -0.2899)  ( 2.00    -0.2893)  ( 0.00    -0.2104)  ( 0.00    -0.1864)
                     ( 0.00    -0.0650)  ( 0.00    -0.0323)  ( 0.00    -0.0250)  ( 0.00    -0.0220)
                     ( 0.00     0.0059)  ( 0.00     0.0078)  ( 0.00     0.0591)  ( 0.00     0.0795)

 CYCLE    2
   MIX coefficients:  0.8000  0.2000
 SCF Error: norm([F,P])=      1.105449826565, max([F,P])=      0.234132935492
 orbitals (Q,E):
 ---------------
 A :32...42          ( 2.00    -0.5398)  ( 2.00    -0.4953)  ( 2.00    -0.4860)  ( 2.00    -0.4324)
                     ( 2.00    -0.3580)  ( 2.00    -0.3548)  ( 2.00    -0.3390)  ( 2.00    -0.2555)
                     ( 2.00    -0.2494)  ( 2.00    -0.2484)  ( 0.00    -0.1857)

 CYCLE    3
  SDIIS (wt  0.000): -0.5308  1.5308
 A-DIIS (wt  1.000):  0.0000  1.0000
  DIIS coefficients:  0.0000  1.0000
 SCF Error: norm([F,P])=      0.471312340958, max([F,P])=      0.105768053574
 orbitals (Q,E):
 ---------------
 A :32...42          ( 2.00    -0.4451)  ( 2.00    -0.4142)  ( 2.00    -0.3881)  ( 2.00    -0.3379)
                     ( 2.00    -0.2853)  ( 2.00    -0.2691)  ( 2.00    -0.2516)  ( 2.00    -0.1461)
                     ( 2.00    -0.1360)  ( 2.00    -0.1317)  ( 0.00    -0.1293)

 CYCLE    4
  SDIIS (wt  0.000): -0.4024  1.3211  0.0813
 A-DIIS (wt  1.000):  0.0000  0.9030  0.0970
  DIIS coefficients:  0.0000  0.9030  0.0970
 SCF Error: norm([F,P])=      1.352576815223, max([F,P])=      0.437422051617
 orbitals (Q,E):
 ---------------
 A :32...42          ( 2.00    -0.4438)  ( 2.00    -0.4075)  ( 2.00    -0.3858)  ( 2.00    -0.3431)
                     ( 2.00    -0.2620)  ( 2.00    -0.2487)  ( 2.00    -0.2298)  ( 2.00    -0.1821)
                     ( 2.00    -0.1761)  ( 2.00    -0.1728)  ( 0.00    -0.1055)

 CYCLE    5
  SDIIS (wt  0.000):  0.1427  0.3225  0.0620  0.4729
 A-DIIS (wt  1.000): -0.0000  0.5436  0.0230  0.4334
  DIIS coefficients: -0.0000  0.5436  0.0230  0.4334
 SCF Error: norm([F,P])=      0.567965594186, max([F,P])=      0.133121545519
 orbitals (Q,E):
 ---------------
 A :32...42          ( 2.00    -0.4832)  ( 2.00    -0.4522)  ( 2.00    -0.4328)  ( 2.00    -0.3944)
                     ( 2.00    -0.3356)  ( 2.00    -0.3183)  ( 2.00    -0.3046)  ( 2.00    -0.1827)
                     ( 2.00    -0.1643)  ( 2.00    -0.1614)  ( 0.00    -0.1561)

 CYCLE    6
  SDIIS (wt  0.000):  0.1012  0.2691 -0.0369  0.5009  0.1658
 A-DIIS (wt  1.000):  0.0000  0.4526  0.0000  0.4293  0.1181
  DIIS coefficients:  0.0000  0.4526  0.0000  0.4293  0.1181
 SCF Error: norm([F,P])=      0.782715453989, max([F,P])=      0.303504925920
 orbitals (Q,E):
 ---------------
 A :32...42          ( 2.00    -0.4756)  ( 2.00    -0.4448)  ( 2.00    -0.4249)  ( 2.00    -0.3842)
                     ( 2.00    -0.3225)  ( 2.00    -0.3064)  ( 2.00    -0.2921)  ( 2.00    -0.1998)
                     ( 2.00    -0.1888)  ( 2.00    -0.1868)  ( 0.00    -0.1464)

 CYCLE    7
  SDIIS (wt  0.684): -0.1612  0.3559 -0.0015  0.0659  0.0115  0.7295
 A-DIIS (wt  0.316):  0.0000  0.0000  0.0000  0.0000  0.0000  1.0000
  DIIS coefficients: -0.1102  0.2433 -0.0010  0.0451  0.0078  0.8150
 SCF Error: norm([F,P])=      0.117231485623, max([F,P])=      0.032317923621
 orbitals (Q,E):
 ---------------
 A :32...42          ( 2.00    -0.4844)  ( 2.00    -0.4525)  ( 2.00    -0.4322)  ( 2.00    -0.3841)
                     ( 2.00    -0.3182)  ( 2.00    -0.3050)  ( 2.00    -0.2877)  ( 2.00    -0.1999)
                     ( 2.00    -0.1878)  ( 2.00    -0.1861)  ( 0.00    -0.1513)

 CYCLE    8
  SDIIS (wt  0.714): -0.0339  0.1046  0.0054  0.0311 -0.0071  0.5203  0.3796
 A-DIIS (wt  0.286):  0.0000  0.0000  0.0000  0.0000  0.0000  0.4919  0.5081
  DIIS coefficients: -0.0242  0.0747  0.0038  0.0222 -0.0050  0.5122  0.4163
 SCF Error: norm([F,P])=      0.107476294997, max([F,P])=      0.029284090901
 orbitals (Q,E):
 ---------------
 A :32...42          ( 2.00    -0.4803)  ( 2.00    -0.4483)  ( 2.00    -0.4279)  ( 2.00    -0.3833)
                     ( 2.00    -0.3208)  ( 2.00    -0.3059)  ( 2.00    -0.2904)  ( 2.00    -0.2015)
                     ( 2.00    -0.1901)  ( 2.00    -0.1884)  ( 0.00    -0.1498)

 CYCLE    9
  SDIIS (wt  0.947): -0.0064  0.0246 -0.0026  0.0104  0.0078  0.2308  0.2438  0.4915
 A-DIIS (wt  0.053):  0.0000  0.0000  0.0000  0.0000  0.0000  0.0000  0.0000  1.0000
  DIIS coefficients: -0.0060  0.0233 -0.0025  0.0099  0.0074  0.2186  0.2310  0.5183
 SCF Error: norm([F,P])=      0.017218877087, max([F,P])=      0.006216468120
 orbitals (Q,E):
 ---------------
 A :32...42          ( 2.00    -0.4813)  ( 2.00    -0.4492)  ( 2.00    -0.4292)  ( 2.00    -0.3842)
                     ( 2.00    -0.3211)  ( 2.00    -0.3066)  ( 2.00    -0.2906)  ( 2.00    -0.2004)
                     ( 2.00    -0.1887)  ( 2.00    -0.1870)  ( 0.00    -0.1499)

 CYCLE   10
  SDIIS (wt  0.981): -0.0016  0.0099 -0.0004  0.0043  0.0012  0.1324  0.1475  0.3664  0.3402
 A-DIIS (wt  0.019):  0.0000  0.0000  0.0000  0.0000  0.0000  0.0000  0.0000  0.2753  0.7247
  DIIS coefficients: -0.0015  0.0097 -0.0004  0.0042  0.0012  0.1299  0.1447  0.3647  0.3475
 SCF Error: norm([F,P])=      0.009562129560, max([F,P])=      0.002873716372
 orbitals (Q,E):
 ---------------
 A :32...42          ( 2.00    -0.4811)  ( 2.00    -0.4491)  ( 2.00    -0.4290)  ( 2.00    -0.3840)
                     ( 2.00    -0.3210)  ( 2.00    -0.3063)  ( 2.00    -0.2907)  ( 2.00    -0.2007)
                     ( 2.00    -0.1892)  ( 2.00    -0.1875)  ( 0.00    -0.1499)

 CYCLE   11
  SDIIS (wt  0.997): -0.0015  0.0073  0.0001  0.0022 -0.0005  0.0896  0.0982  0.2555  0.2935  0.2555
 A-DIIS (wt  0.003):  0.0000  0.0000  0.0000  0.0000  0.0000  0.0000  0.0000  0.0000  0.0000  1.0000
  DIIS coefficients: -0.0015  0.0073  0.0001  0.0022 -0.0005  0.0894  0.0980  0.2548  0.2928  0.2575
 SCF Error: norm([F,P])=      0.003898874786, max([F,P])=      0.001262517751
 orbitals (Q,E):
 ---------------
 A :32...42          ( 2.00    -0.4810)  ( 2.00    -0.4491)  ( 2.00    -0.4290)  ( 2.00    -0.3840)
                     ( 2.00    -0.3210)  ( 2.00    -0.3064)  ( 2.00    -0.2906)  ( 2.00    -0.2008)
                     ( 2.00    -0.1892)  ( 2.00    -0.1875)  ( 0.00    -0.1499)

 CYCLE   12
  SDIIS (wt  1.000):  0.0017  0.0001  0.0010 -0.0005  0.0253  0.0290  0.0792  0.0842  0.1843  0.5958
  DIIS coefficients:  0.0017  0.0001  0.0010 -0.0005  0.0253  0.0290  0.0792  0.0842  0.1843  0.5958
 SCF Error: norm([F,P])=      0.000955922509, max([F,P])=      0.000286894459
 orbitals (Q,E):
 ---------------
 A :32...42          ( 2.00    -0.4810)  ( 2.00    -0.4490)  ( 2.00    -0.4290)  ( 2.00    -0.3840)
                     ( 2.00    -0.3209)  ( 2.00    -0.3063)  ( 2.00    -0.2906)  ( 2.00    -0.2008)
                     ( 2.00    -0.1893)  ( 2.00    -0.1876)  ( 0.00    -0.1499)

 CYCLE   13
  SDIIS (wt  1.000): -0.0001  0.0001  0.0000  0.0019  0.0030  0.0161  0.0146  0.0760  0.3263  0.5621
  DIIS coefficients: -0.0001  0.0001  0.0000  0.0019  0.0030  0.0161  0.0146  0.0760  0.3263  0.5621
 SCF Error: norm([F,P])=      0.000310775738, max([F,P])=      0.000087797689
 orbitals (Q,E):
 ---------------
 A :32...42          ( 2.00    -0.4810)  ( 2.00    -0.4490)  ( 2.00    -0.4290)  ( 2.00    -0.3840)
                     ( 2.00    -0.3209)  ( 2.00    -0.3063)  ( 2.00    -0.2906)  ( 2.00    -0.2008)
                     ( 2.00    -0.1893)  ( 2.00    -0.1876)  ( 0.00    -0.1498)

 CYCLE   14
  SDIIS (wt  1.000): -0.0000 -0.0000  0.0010  0.0013  0.0060  0.0072  0.0329  0.1402  0.3421  0.4694
  DIIS coefficients: -0.0000 -0.0000  0.0010  0.0013  0.0060  0.0072  0.0329  0.1402  0.3421  0.4694
 SCF Error: norm([F,P])=      0.000136451042, max([F,P])=      0.000033449386
 orbitals (Q,E):
 ---------------
 A :32...42          ( 2.00    -0.4810)  ( 2.00    -0.4490)  ( 2.00    -0.4290)  ( 2.00    -0.3840)
                     ( 2.00    -0.3209)  ( 2.00    -0.3063)  ( 2.00    -0.2906)  ( 2.00    -0.2008)
                     ( 2.00    -0.1893)  ( 2.00    -0.1876)  ( 0.00    -0.1498)

 CYCLE   15
  SDIIS (wt  1.000):  0.0000  0.0006  0.0007  0.0031  0.0038  0.0171  0.0739  0.1849  0.2514  0.4644
  DIIS coefficients:  0.0000  0.0006  0.0007  0.0031  0.0038  0.0171  0.0739  0.1849  0.2514  0.4644
 SCF Error: norm([F,P])=      0.000034225527, max([F,P])=      0.000010603665
 orbitals (Q,E):
 ---------------
 A :32...42          ( 2.00    -0.4810)  ( 2.00    -0.4490)  ( 2.00    -0.4290)  ( 2.00    -0.3840)
                     ( 2.00    -0.3209)  ( 2.00    -0.3063)  ( 2.00    -0.2906)  ( 2.00    -0.2008)
                     ( 2.00    -0.1893)  ( 2.00    -0.1876)  ( 0.00    -0.1498)

 CYCLE   16
  SDIIS (wt  1.000):  0.0002  0.0002  0.0007  0.0011  0.0047  0.0201  0.0393  0.0464  0.2037  0.6836
  DIIS coefficients:  0.0002  0.0002  0.0007  0.0011  0.0047  0.0201  0.0393  0.0464  0.2037  0.6836
 SCF Error: norm([F,P])=      0.000010984302, max([F,P])=      0.000003787645
 orbitals (Q,E):
 ---------------
 A :32...42          ( 2.00    -0.4810)  ( 2.00    -0.4490)  ( 2.00    -0.4290)  ( 2.00    -0.3840)
                     ( 2.00    -0.3209)  ( 2.00    -0.3063)  ( 2.00    -0.2906)  ( 2.00    -0.2008)
                     ( 2.00    -0.1893)  ( 2.00    -0.1876)  ( 0.00    -0.1498)

 CYCLE   17
  SDIIS (wt  1.000):  0.0000  0.0000  0.0001  0.0008  0.0046  0.0095  0.0120  0.0597  0.2339  0.6794
  DIIS coefficients:  0.0000  0.0000  0.0001  0.0008  0.0046  0.0095  0.0120  0.0597  0.2339  0.6794
 SCF Error: norm([F,P])=      0.000002402231, max([F,P])=      0.000000645973
 orbitals (Q,E):
 ---------------
 A :32...42          ( 2.00    -0.4810)  ( 2.00    -0.4490)  ( 2.00    -0.4290)  ( 2.00    -0.3840)
                     ( 2.00    -0.3209)  ( 2.00    -0.3063)  ( 2.00    -0.2906)  ( 2.00    -0.2008)
                     ( 2.00    -0.1893)  ( 2.00    -0.1876)  ( 0.00    -0.1498)

 SCF CONVERGED

 CYCLE   18
 ***************************************************************************************************



                                                *******************
                                                *  R E S U L T S  *
                                                *******************
  
 *** Using FIT density in Focky
  SDIIS (wt  1.000):  0.0000  0.0000  0.0003  0.0017  0.0046  0.0062  0.0218  0.0820  0.3288  0.5546
  DIIS coefficients:  0.0000  0.0000  0.0003  0.0017  0.0046  0.0062  0.0218  0.0820  0.3288  0.5546
 SCF Error: norm([F,P])=      0.000000995871, max([F,P])=      0.000000228205

 Scaled ZORA Orbital Energies, per Irrep and Spin:
 =================================================
                        Occup              E (au)              E (eV)       Diff (eV) with prev. cycle
                        -----      --------------------        ------       --------------------------
 A
              32        2.000     -0.48102285343336E+00       -13.089              -1.17E-06
              33        2.000     -0.44903967976895E+00       -12.219              -7.11E-07
              34        2.000     -0.42896903651453E+00       -11.673              -9.97E-07
              35        2.000     -0.38400650603160E+00       -10.449              -7.34E-07
              36        2.000     -0.32092069979433E+00        -8.733               1.61E-07
              37        2.000     -0.30631665265329E+00        -8.335              -6.31E-09
              38        2.000     -0.29056986210390E+00        -7.907              -1.66E-07
              39        2.000     -0.20081658761725E+00        -5.464              -2.15E-06
              40        2.000     -0.18926638742064E+00        -5.150              -2.50E-06
              41        2.000     -0.18758022190759E+00        -5.104              -2.39E-06
              42        0.000     -0.14984987998473E+00        -4.078
              43        0.000     -0.13539237922776E+00        -3.684
              44        0.000     -0.51537931474597E-01        -1.402
              45        0.000     -0.20160107065564E-01        -0.549
              46        0.000     -0.77519763245462E-02        -0.211
              47        0.000      0.20896648726077E-01         0.569
              48        0.000      0.37824063670670E-01         1.029
              49        0.000      0.41469712486428E-01         1.128
              50        0.000      0.99496742088250E-01         2.707
              51        0.000      0.10570428788122E+00         2.876
  
 HOMO :       41 A                -0.18758022190759E+00
 LUMO :       42 A                -0.14984987998473E+00
  


 All Electron Calculation, thus no Orbital Energies of the Core Orbitals are calculated


 Fit test: (difference of exact and fit density, squared integrated, result summed over spins)
         Sum-of-Fragments:                             0.00000000409470
         Orthogonalized Fragments:                     0.00104707017248
         SCF:                                          0.00114583028425



 ==========================
 Electron Density at Nuclei
 ==========================
  
 The electron density is calculated at points on a small sphere around the center of a nucleus.
 The printed electron density is the average electron density on these points.
 The radius of the sphere is the printed approximate finite nuclear radius.
 Note: ZORA-4 density is used, which includes small component density

         Atom        Nuclear Radius (Angstrom)             Electron Density (a.u.)
         ----        -------------------------             -----------------------
     1)   C                 0.0000320678                              127.21536
     2)   H                 0.0000181514                                0.49139
     3)   Br                0.0000536685                            33511.67780
     4)   C                 0.0000320678                              127.07146
     5)   H                 0.0000181514                                0.50484
     6)   H                 0.0000181514                                0.50430
     7)   N                 0.0000333706                              205.80736
     8)   H                 0.0000181514                                0.47644
     9)   H                 0.0000181514                                0.49016
    10)   N                 0.0000333706                              206.15333
    11)   O                 0.0000345546                              314.37212
    12)   O                 0.0000345546                              314.29616



 =======================================
 M U L L I K E N   P O P U L A T I O N S
 =======================================
  
 The survey below gives for each atom:
 a) the total charge (Z minus electrons)
 b) the net spin polarization (nr of electrons spin-A minus spin-B)
 c) for each spin the atomic electron valence density (integrated) per L-value.

 Atom              Charge    Spin density          S         P         D         F
 ----              ------    ------------       ------    ------    ------    ------
 1 C               0.4570                       3.0664    2.3866    0.0833    0.0067
 2 H              -0.0580                       0.9605    0.0912    0.0063    0.0000
 3 Br             -0.5993                       7.9944   17.5954   10.0075    0.0018
 4 C               0.4006                       2.9457    2.5847    0.0650    0.0041
 5 H              -0.1175                       1.0277    0.0841    0.0056    0.0000
 6 H              -0.1234                       1.0400    0.0772    0.0061    0.0000
 7 N               0.3055                       3.2672    3.3775    0.0454    0.0044
 8 H              -0.0098                       0.8553    0.1429    0.0116    0.0000
 9 H              -0.0635                       0.9387    0.1143    0.0105    0.0000
 10 N              0.5868                       3.2121    2.9679    0.2198    0.0133
 11 O             -0.3579                       3.8501    4.4316    0.0673    0.0088
 12 O             -0.4208                       3.8434    4.5021    0.0668    0.0085

 Populations of individual BAS functions
 ----------------------------------------
 1 C            0.5058  1.4825  0.2218  0.8915 -0.0353  0.0709 -0.2038 -0.2042  0.5874  0.8029
[...]
                                    6.03%     1 S              -6.532  1.00     6 H
                                   -5.41%     2 P:y             4.589  0.00     2 C
                                   -5.22%     2 P:z             4.589  0.00     1 C
                                   -5.11%     2 P:z             4.589  0.00     2 C
                                   -5.05%     2 P:x             4.589  0.00     2 C
                                    4.88%     2 S               2.394  0.00     4 H
                                    3.12%     1 S              -6.532  1.00     4 H
                                   -3.06%     3 S              10.158  0.00     2 C
                                   -2.89%     1 P:y            -5.239  0.67     1 C
                                   -2.84%     2 P:y             7.649  0.00     9 N
                                   -2.44%     2 P:z             7.649  0.00     9 N
                                    2.34%     2 S               2.394  0.00     3 H
                                    2.28%     1 P:y            -5.239  0.67     2 C
                                    1.66%     1 S              -6.532  1.00     3 H
                                   -1.49%     1 P:z            -5.239  0.67     1 C
                                    1.46%     2 P:x             4.589  0.00     1 C
                                    1.31%     1 P:x            11.051  0.00     5 H
                                    1.27%     2 S               2.394  0.00     6 H
                                   -1.24%     3 S              10.158  0.00     1 C
                                    1.14%     2 S             -13.620  2.00     2 C
                                    1.14%     2 S             -18.450  2.00     9 N
      -0.211  0.00    46 A         39.91%     1 S              -6.532  1.00     6 H
                                   34.95%     1 S              -6.532  1.00     4 H
                                   27.36%     2 S               2.394  0.00     6 H
                                  -19.97%     2 P:z             4.589  0.00     1 C
                                    9.17%     2 S               2.394  0.00     4 H
                                   -7.02%     2 P:z             7.649  0.00     9 N
                                    6.61%     2 P:z             4.589  0.00     2 C
                                    4.36%     2 S               2.394  0.00     5 H
                                    3.97%     1 S              -6.532  1.00     5 H
                                    3.55%     1 S              -6.532  1.00     7 H
                                   -3.31%     1 P:z            -5.239  0.67     1 C
                                   -2.61%     2 P:y             4.589  0.00     1 C
                                   -2.57%     2 S               2.394  0.00     7 H
                                   -2.45%     2 P:y             4.589  0.00     2 C
                                   -2.39%     2 P:y             7.649  0.00     9 N
                                    2.28%     2 S             -13.620  2.00     1 C
                                    1.69%     1 P:z            -5.239  0.67     2 C
                                    1.59%     1 P:z            11.051  0.00     6 H
                                    1.53%     1 P:y            -7.062  1.00     9 N
                                    1.49%     2 P:x             4.589  0.00     2 C
                                    1.46%     1 S              -6.532  1.00     3 H
                                   -1.41%     2 P:x             4.589  0.00     1 C
       0.569  0.00    47 A         36.85%     1 P:z            -5.239  0.67     2 C
                                   15.52%     2 S             -18.450  2.00    10 N
                                   -9.33%     3 S              14.073  0.00    10 N
                                    5.75%     2 S             -13.620  2.00     2 C
                                    5.07%     2 P:z             4.589  0.00     1 C
                                    4.92%     2 S               2.394  0.00     7 H
                                    4.47%     2 S               2.394  0.00     6 H
                                    3.98%     1 P:z            -9.020  1.33    12 O
                                    3.95%     1 P:y            -5.239  0.67     1 C
                                   -3.58%     2 P:y             4.589  0.00     1 C
                                    3.52%     1 P:z            -5.239  0.67     1 C
                                    3.42%     1 P:z            -7.062  1.00    10 N
                                    3.26%     1 P:y            -9.020  1.33    11 O
                                    3.19%     1 P:x            -5.239  0.67     2 C
                                    2.27%     1 S              -6.532  1.00     3 H
                                    2.23%     1 P:y            -7.062  1.00    10 N
                                   -2.17%     2 P:z             7.649  0.00     9 N
                                    2.14%     1 P:z            11.051  0.00     5 H
                                    2.10%     1 P:z            11.051  0.00     3 H
                                    2.03%     1 S              -6.532  1.00     7 H
                                    1.77%     2 P:z             4.589  0.00     2 C
                                   -1.62%     2 S               2.394  0.00     3 H
                                   -1.37%     2 P:y             7.649  0.00     9 N
                                    1.29%     1 D:yz           33.824  0.00     1 C
                                   -1.08%     3 S              10.158  0.00     2 C
                                    1.07%     2 S               2.394  0.00     4 H
                                    1.02%     1 D:z2           33.824  0.00     2 C
       1.029  0.00    48 A         25.66%     1 S              -6.532  1.00     4 H
                                   19.59%     1 S              -6.532  1.00     6 H
                                   19.03%     2 S               2.394  0.00     4 H
                                   16.88%     1 S              -6.532  1.00     7 H
                                   10.74%     1 S              -6.532  1.00     5 H
                                   -8.95%     2 P:x             4.589  0.00     2 C
                                   -8.80%     2 S               2.394  0.00     7 H
                                    8.71%     2 S               2.394  0.00     6 H
                                   -7.67%     2 P:y             7.649  0.00     9 N
                                    6.51%     2 S             -13.620  2.00     1 C
                                   -6.49%     3 S              10.158  0.00     1 C
                                    5.34%     1 S              -6.532  1.00     3 H
                                    4.44%     2 S               2.394  0.00     3 H
                                   -4.29%     2 P:z             4.589  0.00     1 C
                                   -3.25%     2 P:z             7.649  0.00     9 N
                                    3.21%     1 P:y            -5.239  0.67     2 C
                                    3.09%     1 P:z            -7.062  1.00     9 N
                                    2.33%     3 S              40.869  0.00     7 H
                                    1.93%     3 S              40.869  0.00     5 H
                                    1.92%     2 S             -13.620  2.00     2 C
                                    1.64%     1 P:z            -5.239  0.67     1 C
                                    1.59%     1 P:y            -7.062  1.00     9 N
                                    1.51%     1 P:z            -7.062  1.00    10 N
                                    1.44%     1 P:x            -5.239  0.67     2 C
                                   -1.17%     5 S               6.099  0.00     8 Br
                                   -1.04%     2 P:z             4.589  0.00     2 C
                                   -1.01%     4 P:x             3.720  0.00     8 Br
       1.128  0.00    49 A         55.32%     1 S              -6.532  1.00     3 H
                                   48.90%     2 S               2.394  0.00     3 H
                                  -35.28%     2 P:x             4.589  0.00     2 C
                                    9.24%     2 P:x             4.589  0.00     1 C
                                   -8.61%     2 S               2.394  0.00     5 H
                                    5.84%     2 P:y             4.589  0.00     2 C
                                    4.38%     1 P:x            -5.239  0.67     2 C
                                    3.50%     1 S              -6.532  1.00     5 H
                                    3.31%     1 S              -6.532  1.00     6 H
                                    2.52%     1 P:x            -5.239  0.67     1 C
                                   -2.27%     4 P:y             3.720  0.00     8 Br
                                   -2.11%     3 S              10.158  0.00     2 C
                                    1.97%     1 S              -6.532  1.00     7 H
                                    1.79%     2 S             -13.620  2.00     2 C
                                   -1.58%     2 S               2.394  0.00     7 H
                                   -1.54%     5 S               6.099  0.00     8 Br
                                    1.54%     1 P:y            -5.239  0.67     2 C
                                   -1.42%     3 S              10.158  0.00     1 C
                                    1.41%     1 P:y            -5.239  0.67     1 C
                                    1.41%     3 S              40.869  0.00     3 H
                                    1.38%     2 S             -13.620  2.00     1 C
                                    1.33%     3 S              40.869  0.00     5 H
                                    1.19%     1 P:x            -7.062  1.00    10 N
                                   -1.13%     3 S              21.524  0.00    11 O



 =======================================================================
 Electrostatic potential at the Nuclei due to electrons and other nuclei
 =======================================================================
  
         Atom                  Potential
         ----                  ---------
     1)   C                  14.64856240
     2)   H                   1.02151588
     3)   Br                180.61926293
     4)   C                  14.67505996
     5)   H                   1.01348757
     6)   H                   1.01331725
     7)   N                  18.30397085
     8)   H                   0.94183150
     9)   H                   0.93719317
    10)   N                  18.15140342
    11)   O                  22.33429387
    12)   O                  22.32851233
 Mulliken charges used for AMS results%charges...


    =====================
     CALCULATION RESULTS
    =====================

Energy (hartree)            -2.28279514


--------------
Atomic charges
--------------
  Index   Atom    Charge
      1      C    0.4570
      2      H   -0.0580
      3     Br   -0.5993
      4      C    0.4006
      5      H   -0.1175
      6      H   -0.1234
      7      N    0.3055
      8      H   -0.0098
      9      H   -0.0635
     10      N    0.5868
     11      O   -0.3579
     12      O   -0.4208


Dipole moment vector    (Debye):    -7.46713873   -2.83919256    0.78426788
              magnitude (Debye):     8.02709483


-----------------------
Molecular orbitals info
-----------------------
n orbitals:              267
n spin:                    1

Note: only printing virtual orbitals with
      energy smaller than HOMO + 100. eV

HOMO (eV):              -5.1043
LUMO (eV):              -4.0776
HOMO-LUMO gap (eV):      1.0267

   Index   Energy (eV)    Occupation
     178       94.5624         0.000       
     177       94.4763         0.000       
     176       94.2641         0.000       
     175       93.9820         0.000       
     174       92.9292         0.000       
     173       92.0004         0.000       
     172       91.4471         0.000       
     171       90.6197         0.000       
     170       90.2765         0.000       
     169       88.6971         0.000       
     168       88.0189         0.000       
     167       87.5626         0.000       
     166       85.7896         0.000       
     165       84.6608         0.000       
     164       83.0184         0.000       
     163       82.0295         0.000       
     162       80.9947         0.000       
     161       79.9597         0.000       
     160       79.2290         0.000       
     159       78.2310         0.000       
     158       77.4416         0.000       
     157       76.7908         0.000       
     156       76.5817         0.000       
     155       76.2244         0.000       
     154       75.5874         0.000       
     153       75.1356         0.000       
     152       73.9217         0.000       
     151       73.7248         0.000       
     150       71.4110         0.000       
     149       70.5211         0.000       
     148       70.3274         0.000       
     147       67.3023         0.000       
     146       66.5061         0.000       
     145       65.7326         0.000       
     144       65.2415         0.000       
     143       62.4216         0.000       
     142       62.0344         0.000       
     141       60.4242         0.000       
     140       59.8156         0.000       
     139       59.2785         0.000       
     138       57.4749         0.000       
     137       56.3088         0.000       
     136       55.7370         0.000       
     135       54.8820         0.000       
     134       53.0967         0.000       
     133       52.0430         0.000       
     132       50.3374         0.000       
     131       49.6011         0.000       
     130       49.4176         0.000       
     129       49.0917         0.000       
     128       48.3073         0.000       
     127       46.4402         0.000       
     126       45.4775         0.000       
     125       44.4926         0.000       
     124       43.4831         0.000       
     123       41.8930         0.000       
     122       40.7338         0.000       
     121       40.0947         0.000       
     120       39.0214         0.000       
     119       38.2903         0.000       
     118       37.4192         0.000       
     117       36.6292         0.000       
     116       36.4401         0.000       
     115       36.3480         0.000       
     114       35.4858         0.000       
     113       34.7708         0.000       
     112       34.4990         0.000       
     111       33.8727         0.000       
     110       33.4731         0.000       
     109       32.3149         0.000       
     108       31.8161         0.000       
     107       30.7410         0.000       
     106       30.3716         0.000       
     105       29.6986         0.000       
     104       29.2973         0.000       
     103       28.7742         0.000       
     102       28.2856         0.000       
     101       27.5633         0.000       
     100       27.2828         0.000       
      99       26.8691         0.000       
      98       26.3834         0.000       
      97       26.1605         0.000       
      96       25.7252         0.000       
      95       25.5495         0.000       
      94       25.2207         0.000       
      93       24.7387         0.000       
      92       23.6605         0.000       
      91       23.4115         0.000       
      90       22.5469         0.000       
      89       21.7918         0.000       
      88       20.3310         0.000       
      87       19.6209         0.000       
      86       18.9825         0.000       
      85       18.3403         0.000       
      84       17.8411         0.000       
      83       16.7092         0.000       
      82       15.5997         0.000       
      81       14.6351         0.000       
      80       14.1928         0.000       
      79       13.2134         0.000       
      78       12.7703         0.000       
      77       12.4367         0.000       
      76       11.6861         0.000       
      75       11.0152         0.000       
      74       10.9063         0.000       
      73       10.4762         0.000       
      72       10.1332         0.000       
      71        9.9102         0.000       
      70        9.5985         0.000       
      69        9.0668         0.000       
      68        8.9424         0.000       
      67        8.6662         0.000       
      66        8.2851         0.000       
      65        8.0664         0.000       
      64        7.6470         0.000       
      63        7.2573         0.000       
      62        6.8376         0.000       
      61        6.4988         0.000       
      60        6.0061         0.000       
      59        5.8910         0.000       
      58        5.5753         0.000       
      57        5.3222         0.000       
      56        4.9084         0.000       
      55        4.4152         0.000       
      54        3.9299         0.000       
      53        3.6626         0.000       
      52        3.2702         0.000       
      51        2.8764         0.000       
      50        2.7074         0.000       
      49        1.1284         0.000       
      48        1.0292         0.000       
      47        0.5686         0.000       
      46       -0.2109         0.000       
      45       -0.5486         0.000       
      44       -1.4024         0.000       
      43       -3.6842         0.000       
      42       -4.0776         0.000 < LUMO
      41       -5.1043         2.000 < HOMO
      40       -5.1502         2.000       
      39       -5.4645         2.000       
      38       -7.9068         2.000       
      37       -8.3353         2.000       
      36       -8.7327         2.000       
      35      -10.4493         2.000       
      34      -11.6728         2.000       
      33      -12.2190         2.000       
      32      -13.0893         2.000       
      31      -13.6585         2.000       
      30      -14.5405         2.000       
      29      -14.7019         2.000       
      28      -15.9088         2.000       
      27      -16.5702         2.000       
      26      -17.0789         2.000       
      25      -18.5081         2.000       
      24      -21.8236         2.000       
      23      -25.7923         2.000       
      22      -27.5012         2.000       
      21      -31.9109         2.000       
      20      -63.3563         2.000       
      19      -63.3565         2.000       
      18      -63.4422         2.000       
      17      -63.4495         2.000       
      16      -63.4753         2.000       
      15     -169.8953         2.000       
      14     -169.9048         2.000       
      13     -170.0204         2.000       
      12     -233.7115         2.000       
      11     -273.0629         2.000       
      10     -273.9073         2.000       
       9     -384.5522         2.000       
       8     -388.7820         2.000       
       7     -513.4288         2.000       
       6     -513.5586         2.000       
       5    -1523.9786         2.000       
       4    -1523.9817         2.000       
       3    -1524.0207         2.000       
       2    -1727.0806         2.000       
       1   -13293.6015         2.000       

AMS application finished. Exiting.
NORMAL TERMINATION
     Total cpu time:      43.35
  Total system time:       0.42
 Total elapsed time:      43.94
NORMAL TERMINATION
