
 *******************************************************************************
 *                                                                             *
 *  --------------------------------                                           *
 *   Amsterdam Modeling Suite (AMS)              2026.103                      *
 *  --------------------------------                                           *
 *                                               r260501 2026-05-01 873454b5   *
 *                                                                             *
 *                                                                             *
 *                              =================                              *
 *                              |               |                              *
 *                              |     A M S     |                              *
 *                              |               |                              *
 *                              =================                              *
 *                                                                             *
 *                                                                             *
 *   Online information and documentation:  https://www.scm.com/support/       *
 *   E-mail:  support@scm.com   info@scm.com                                   *
 *                                                                             *
 *   Scientific publications using AMS results must be properly referenced     *
 *   See the User Manuals (or the web site) for recommended citations          *
 *   The terms and conditions of the End User License Agreement apply to       *
 *   the use of AMS, https://www.scm.com/license-terms/                        *
 *                                                                             *
 **********************  x86_64_linux_intel / intelmpi  ************************
 
 Licensed to: Jong-June Jeon / University of Seoul 2026-06-02 13:44:15
 SCM User ID: u30731
  
 AMS 2026.103  RunTime: Jun03-2026 23:39:48  ShM Nodes: 1  Procs: 1

 AMS jobname: c3_eda
 AMS jobid  : 974879387

 Start   directory: /gpfs/home1/yeseo1ee/projects/eda-asm-prediction/ADF_800/adf_outputs/batch_007/qmrxn20_sn2_E_A_A_B_C_D/
 Results directory: /gpfs/home1/yeseo1ee/projects/eda-asm-prediction/ADF_800/adf_outputs/batch_007/qmrxn20_sn2_E_A_A_B_C_D/c3_eda.results/
 Scratch directory: /tmp/amstmp_c3_eda_kid0.974879387/

 RNG seed: -800900444 -141099386 350572936 -246979586 841504609 1677321923 -895205441 286713675



                      ************************************************************************
                      *  ADF 2026.103  RunTime: Jun03-2026 23:39:48  ShM Nodes: 1  Procs: 1  *
                      ************************************************************************
  

       ****************************
       * SINGLE POINT CALCULATION *
       ****************************

--------
Geometry
--------
Formula: C2H5Br2N2O2
Atoms
  Index Symbol   x (angstrom)   y (angstrom)   z (angstrom)
      1     Br    -2.00392550    -0.36411486     1.17026768 adf.f=fA
      2      C     0.61782885    -0.09910463    -0.09255663 adf.f=fB
      3      H     1.48649124     1.78124127     0.21526186 adf.f=fB
      4     Br     3.56573488     0.00736829    -0.02060813 adf.f=fB
      5      C     0.52246298     1.38815062    -0.10709779 adf.f=fB
      6      H     0.86577070    -0.53327385     0.86128946 adf.f=fB
      7      H    -0.27166437     1.67636539     0.58155987 adf.f=fB
      8      N     0.45755503    -0.87670811    -1.10751838 adf.f=fB
      9      H     0.21471310    -0.49008206    -2.00721071 adf.f=fB
     10      H     0.55425193    -1.87077701    -0.98487967 adf.f=fB
     11      N     0.21399028     2.06675572    -1.39693000 adf.f=fB
     12      O     0.20480763     3.28974513    -1.34881085 adf.f=fB
     13      O    -0.01963674     1.40872409    -2.41299671 adf.f=fB

Total System Charge             -1.00000


----------------
ADF Engine Input
----------------
 
   Basis
     Type TZ2P
     Core None
   End
   XC
     GGA BLYP
     Dispersion GRIMME3 BJDAMP
   End
   Symmetry NOSYM
   NumericalQuality Normal
   Unrestricted No
   SCF
     Iterations 200
     Converge 1.0e-6
   End
   fragments
     fA c1_fragA_ts.results/adf.rkf
     fB c2_fragB_ts.results/adf.rkf
   end
   etsnocv
     enocv 0.05
     ekmin 0.5
   end
   print etslowdin
   Save TAPE21
 

 Title: *** (NO TITLE) ***

 *** adf ***



 ===========================
 A T T A C H E D   F I L E S
 ===========================
  



 ===============================
 M O D E L   P A R A M E T E R S
 ===============================
  
 DENSITY FUNCTIONAL POTENTIAL (scf)
    LDA:                               Exchange only                           == Not Default ==
    Gradient Corrections:              Becke88 LYP                             == Not Default ==

 SPIN  (restricted / unrestr.)
    Molecule:                          Restricted                               
    Fragments:                         Restricted                               

 OTHER ASPECTS
    Relativistic Corrections:          scalar (ZORA,MAPA)                       

    Nuclear Charge Density Model:      Point Charge Nuclei                      
    Core Treatment:                    Frozen Orbital(s)                        

    Hyperfine or Zeeman Interaction:   ---                                      

 Settings for Grimme D3 dispersion correction

      damping                        BJ
      s6                          1.000
      s8                          2.700
      a1                          0.430
      a2                          4.236

 Other (technical) parameters

      alpha                      14.000
      version                         4
 


 Fragment File(s)
 ----------------
 fA:
         file : c1_fragA_ts.results/adf.rkf
         jobid: 1556856056
         title: *** adf ***
 fB:
         file : c2_fragB_ts.results/adf.rkf
         jobid: 857962237
         title: *** adf ***



 ===============
 G E O M E T R Y  ***  3D  Molecule  ***
 ===============
  

 ATOMS
 =====                            X Y Z                    CHARGE
                                (Angstrom)             Nucl     +Core       At.Mass
                       --------------------------    ----------------       -------
    1  Br             -2.0039   -0.3641    1.1703     35.00     35.00       78.9183
    2  C               0.6178   -0.0991   -0.0926      6.00      6.00       12.0000
    3  H               1.4865    1.7812    0.2153      1.00      1.00        1.0078
    4  Br              3.5657    0.0074   -0.0206     35.00     35.00       78.9183
    5  C               0.5225    1.3882   -0.1071      6.00      6.00       12.0000
    6  H               0.8658   -0.5333    0.8613      1.00      1.00        1.0078
    7  H              -0.2717    1.6764    0.5816      1.00      1.00        1.0078
    8  N               0.4576   -0.8767   -1.1075      7.00      7.00       14.0031
    9  H               0.2147   -0.4901   -2.0072      1.00      1.00        1.0078
   10  H               0.5543   -1.8708   -0.9849      1.00      1.00        1.0078
   11  N               0.2140    2.0668   -1.3969      7.00      7.00       14.0031
   12  O               0.2048    3.2897   -1.3488      8.00      8.00       15.9949
   13  O              -0.0196    1.4087   -2.4130      8.00      8.00       15.9949


 FRAGMENTS
 =========                                     Atoms in this Fragment     Cart. coord.s (Angstrom)
                                               -------------------------------------------------------
    1  fA                                                1  Br          -2.0039   -0.3641    1.1703
    2  fB                                                2  C            0.6178   -0.0991   -0.0926
                                                         5  C            0.5225    1.3882   -0.1071
                                                         3  H            1.4865    1.7812    0.2153
                                                         6  H            0.8658   -0.5333    0.8613
                                                         7  H           -0.2717    1.6764    0.5816
                                                         9  H            0.2147   -0.4901   -2.0072
                                                        10  H            0.5543   -1.8708   -0.9849
                                                         4  Br           3.5657    0.0074   -0.0206
                                                         8  N            0.4576   -0.8767   -1.1075
                                                        11  N            0.2140    2.0668   -1.3969
                                                        12  O            0.2048    3.2897   -1.3488
                                                        13  O           -0.0196    1.4087   -2.4130


 Interatomic Distance Matrix (Angstrom)
 --------------------------------------

   1)     0.000
   2)     2.922   0.000
   3)     4.207   2.094   0.000
   4)     5.708   2.951   2.743   0.000
   5)     3.329   1.490   1.090   3.343   0.000
   6)     2.891   1.077   2.482   2.891   2.179   0.000
   7)     2.741   2.097   1.799   4.228   1.090   2.501   0.000
   8)     3.393   1.289   3.142   3.409   2.477   2.040   3.147   0.000
   9)     3.877   1.995   3.423   3.927   2.689   2.942   3.411   1.009   0.000
  10)     3.669   1.985   3.956   3.678   3.375   2.301   3.965   1.006   1.751   0.000
  11)     4.174   2.560   2.074   4.168   1.490   3.505   2.074   2.968   2.629   3.974
          0.000
  12)     4.957   3.638   2.523   4.882   2.293   4.465   2.561   4.181   3.837   5.185
          1.224   0.000
  13)     4.463   2.840   3.052   4.532   2.369   3.908   3.017   2.675   1.956   3.623
          1.233   2.173   0.000

 Min. Distance =    1.0063
 Max. Distance =    5.7077



 =====================================
 S Y M M E T R Y ,   E L E C T R O N S
 =====================================
  
 Symmetry: NOSYM

 Irreducible Representations, including subspecies
 -------------------------------------------------
 A


 Configuration of Valence Electrons
 ==================================
 ( determined in the SCF procedure )

 Total:   118

 Net Charge: -1 (Nuclei minus Electrons)

 Aufbau principle for MO occupations will be applied through SCF cycle no.     100
 Thereafter, the program will assign electrons to MOs that are spatially
 similar to the occupied MOs in a "reference" cycle ("KeepOrbitals").
 The reference cycle is always the PREVIOUS cycle: it will evolve with
 the SCF procedure.
 ***************************************************************************************************



                                      ****************************************
                                      *  B U I L D : (Fragments, Functions)  *
                                      ****************************************
  

 The individual fragments are copies of the corresponding 'Master' fragments defined on the fragment files.
 However, they may have been rotated (and translated) with respect to the Master. The local coordinate axes
 of each fragment (which define for instance the spatial orientation in the current molecule of a fragment
 P:x orbital) are not necessarily those of the molecule.
 The local frame (if different from the molecular one) is printed to enable an interpretation of the expan-
 sion of an MO in Fragment Orbitals.



                                              ************************
                                              *  Fragment Type : fA  *
                                              ************************
  

 Fragment no.    1   (in the list of all fragments)
 -----------------
 The local coordinate frame is identical to the molecular frame.

 Check Atomic Coordinates:

                  Master (on file)          After Computed Tranformation               As specified on Input
           ----------------------------     ----------------------------     ---------------------------------
     1)    -2.00393  -0.36411   1.17027     -2.00393  -0.36411   1.17027       1  -2.00393  -0.36411   1.17027



                                              ************************
                                              *  Fragment Type : fB  *
                                              ************************
  

 Fragment no.    2   (in the list of all fragments)
 -----------------
 The local coordinate frame is identical to the molecular frame.

 Check Atomic Coordinates:

                  Master (on file)          After Computed Tranformation               As specified on Input
           ----------------------------     ----------------------------     ---------------------------------
     1)     0.61783  -0.09910  -0.09256      0.61783  -0.09910  -0.09256       2   0.61783  -0.09910  -0.09256
     2)     0.52246   1.38815  -0.10710      0.52246   1.38815  -0.10710       5   0.52246   1.38815  -0.10710
     3)     1.48649   1.78124   0.21526      1.48649   1.78124   0.21526       3   1.48649   1.78124   0.21526
     4)     0.86577  -0.53327   0.86129      0.86577  -0.53327   0.86129       6   0.86577  -0.53327   0.86129
     5)    -0.27166   1.67637   0.58156     -0.27166   1.67637   0.58156       7  -0.27166   1.67637   0.58156
     6)     0.21471  -0.49008  -2.00721      0.21471  -0.49008  -2.00721       9   0.21471  -0.49008  -2.00721
     7)     0.55425  -1.87078  -0.98488      0.55425  -1.87078  -0.98488      10   0.55425  -1.87078  -0.98488
     8)     3.56573   0.00737  -0.02061      3.56573   0.00737  -0.02061       4   3.56573   0.00737  -0.02061
     9)     0.45756  -0.87671  -1.10752      0.45756  -0.87671  -1.10752       8   0.45756  -0.87671  -1.10752
    10)     0.21399   2.06676  -1.39693      0.21399   2.06676  -1.39693      11   0.21399   2.06676  -1.39693
    11)     0.20481   3.28975  -1.34881      0.20481   3.28975  -1.34881      12   0.20481   3.28975  -1.34881
    12)    -0.01964   1.40872  -2.41300     -0.01964   1.40872  -2.41300      13  -0.01964   1.40872  -2.41300



 =======
 S F O s  ***  (Symmetrized Fragment Orbitals)  ***
 =======
  
 SFOs are linear combinations of (valence) Fragment Orbitals (FOs), such that the SFOs transform as the
 irreducible representations of the (molecular) symmetry group. Each SFO is therefore characterized by
 an irrep of the molecule and by a few (or only one) generating FOs.
 The SFOs constitute a symmetry-adapted basis for the Fock matrix. The MO eigenvector coefficients in
 this basis provide a direct interpretation of the MOs in terms of Frontier Orbital Theory.

 The SFOs are combined with auxiliary Core Functions (CFs) to ensure orthogonalization on the (frozen)
 Core Orbitals (COs). The Core-orthogonalized SFOs (CSFOs) constitute the true Fock basis.

 The FOs, and hence also the (C)SFOs are combinations of the elementary basis functions (BAS). The basis
 functions that participate in the description of the SFOs depend on the irrep. The indices of the
 involved functions are printed below for each irrep.
 (The complete list of primitive basis functions is printed in another section)

 Total nr. of (C)SFOs (summation over all irreps) :   323

 NOTE: a (C)SFO that is defined as a combination of more than one FO is usually NOT normalized.



                                       === A ===
 Nr. of SFOs :  323
 Cartesian basis functions that participate in this irrep (total number =   366) :
      1     2     3    10    11    36    37    38     4     7
     12    15    39    42    45     5     8    13    16    40
     43    46     6     9    14    17    41    44    47    18
     24    30    48    19    25    31    49    20    26    32
     50    21    27    33    51    22    28    34    52    23
     29    35    53    54    55    56    57    58    59    60
     61    62    63    64    65    66    67    68    69    72
     75    70    73    76    71    74    77    78    79    80
     81    82    83    84    85    86    87    88    89    90
     91    92    93    94    95    96    97    98    99   102
    105   100   103   106   101   104   107   108   109   110
    111   112   113   114   115   116   117   118   119   120
    121   122   123   124   125   126   127   128   129   130
    131   132   133   134   135   136   137   138   139   140
    141   142   143   144   145   146   147   148   149   150
    151   152   153   154   155   156   157   158   159   160
    161   162   163   164   165   166   167   168   169   170
    171   172   173   174   175   176   177   178   179   180
    181   182   183   184   185   186   193   194   219   220
    221   187   190   195   198   222   225   228   188   191
    196   199   223   226   229   189   192   197   200   224
    227   230   201   207   213   231   202   208   214   232
    203   209   215   233   204   210   216   234   205   211
    217   235   206   212   218   236   237   238   239   240
    241   242   243   244   245   246   247   248   249   250
    251   252   255   258   253   256   259   254   257   260
    261   262   263   264   265   266   267   268   269   270
    271   272   273   274   275   276   277   278   279   280
    281   282   285   288   283   286   289   284   287   290
    291   292   293   294   295   296   297   298   299   300
    301   302   303   304   305   306   307   308   309   310
    311   312   315   318   313   316   319   314   317   320
    321   322   323   324   325   326   327   328   329   330
    331   332   333   334   335   336   337   338   339   340
    341   342   345   348   343   346   349   344   347   350
    351   352   353   354   355   356   357   358   359   360
    361   362   363   364   365   366

    SFO  (index         Fragment          Generating    Expansion in Fragment Orbitals
  indx  incl.CFs)   Occup   Orb.Energy   FragmentType  Coeff.   Orbital     on Fragment
 --------------------------------------------------------------------------------------
     1       1      2.000    -488.318 au  fA            1.00      1 A               1
                        (  -13287.798 eV)
     2       2      2.000     -63.253 au  fA            1.00      2 A               1
                        (   -1721.191 eV)
     3       3      2.000     -55.790 au  fA            1.00      3 A               1
                        (   -1518.110 eV)
     4       4      2.000     -55.790 au  fA            1.00      4 A               1
                        (   -1518.110 eV)
     5       5      2.000     -55.790 au  fA            1.00      5 A               1
                        (   -1518.110 eV)
     6       6      2.000      -8.371 au  fA            1.00      6 A               1
                        (    -227.798 eV)
     7       7      2.000      -6.028 au  fA            1.00      7 A               1
                        (    -164.026 eV)
     8       8      2.000      -6.028 au  fA            1.00      8 A               1
                        (    -164.026 eV)
     9       9      2.000      -6.028 au  fA            1.00      9 A               1
                        (    -164.026 eV)
    10      10      2.000      -2.113 au  fA            1.00     10 A               1
                        (     -57.501 eV)
    11      11      2.000      -2.113 au  fA            1.00     11 A               1
                        (     -57.501 eV)
    12      12      2.000      -2.113 au  fA            1.00     12 A               1
                        (     -57.501 eV)
    13      13      2.000      -2.113 au  fA            1.00     13 A               1
                        (     -57.501 eV)
    14      14      2.000      -2.113 au  fA            1.00     14 A               1
                        (     -57.501 eV)
    15      15      2.000      -0.411 au  fA            1.00     15 A               1
                        (     -11.197 eV)
    16      16      2.000       0.018 au  fA            1.00     16 A               1
                        (       0.483 eV)
    17      17      2.000       0.018 au  fA            1.00     17 A               1
                        (       0.483 eV)
    18      18      2.000       0.018 au  fA            1.00     18 A               1
                        (       0.483 eV)
    19      19       --         0.352 au  fA            1.00     19 A               1
                        (       9.586 eV)
    20      20       --         0.352 au  fA            1.00     20 A               1
                        (       9.586 eV)
    21      21       --         0.352 au  fA            1.00     21 A               1
                        (       9.586 eV)
    22      22       --         0.486 au  fA            1.00     22 A               1
                        (      13.238 eV)
    23      23       --         0.558 au  fA            1.00     23 A               1
                        (      15.187 eV)
    24      24       --         0.558 au  fA            1.00     24 A               1
                        (      15.187 eV)
    25      25       --         0.558 au  fA            1.00     25 A               1
                        (      15.187 eV)
    26      26       --         0.558 au  fA            1.00     26 A               1
                        (      15.187 eV)
    27      27       --         0.558 au  fA            1.00     27 A               1
                        (      15.187 eV)
    28      28       --         1.147 au  fA            1.00     28 A               1
                        (      31.199 eV)
    29      29       --         1.147 au  fA            1.00     29 A               1
                        (      31.199 eV)
    30      30       --         1.147 au  fA            1.00     30 A               1
                        (      31.199 eV)
    31      31       --         1.147 au  fA            1.00     31 A               1
                        (      31.199 eV)
    32      32       --         1.147 au  fA            1.00     32 A               1
                        (      31.199 eV)
    33      33       --         1.147 au  fA            1.00     33 A               1
                        (      31.199 eV)
    34      34       --         1.147 au  fA            1.00     34 A               1
                        (      31.199 eV)
    35      35       --         1.498 au  fA            1.00     35 A               1
                        (      40.750 eV)
    36      36       --         1.498 au  fA            1.00     36 A               1
                        (      40.750 eV)
    37      37       --         1.498 au  fA            1.00     37 A               1
                        (      40.750 eV)
    38      38       --         2.724 au  fA            1.00     38 A               1
                        (      74.134 eV)
    39      39       --         3.031 au  fA            1.00     39 A               1
                        (      82.480 eV)
    40      40       --         3.031 au  fA            1.00     40 A               1
                        (      82.480 eV)
    41      41       --         3.031 au  fA            1.00     41 A               1
                        (      82.480 eV)
    42      42       --         3.031 au  fA            1.00     42 A               1
                        (      82.480 eV)
    43      43       --         3.031 au  fA            1.00     43 A               1
                        (      82.480 eV)
    44      44       --         9.061 au  fA            1.00     44 A               1
                        (     246.549 eV)
    45      45       --         9.061 au  fA            1.00     45 A               1
                        (     246.549 eV)
    46      46       --         9.061 au  fA            1.00     46 A               1
                        (     246.549 eV)
    47      47       --        13.874 au  fA            1.00     47 A               1
                        (     377.522 eV)
    48      48       --        20.860 au  fA            1.00     48 A               1
                        (     567.625 eV)
    49      49       --        20.860 au  fA            1.00     49 A               1
                        (     567.625 eV)
    50      50       --        20.860 au  fA            1.00     50 A               1
                        (     567.625 eV)
    51      51       --        20.860 au  fA            1.00     51 A               1
                        (     567.625 eV)
    52      52       --        20.860 au  fA            1.00     52 A               1
                        (     567.625 eV)
    53      53       --        95.950 au  fA            1.00     53 A               1
                        (    2610.937 eV)
    54      54       --        95.950 au  fA            1.00     54 A               1
                        (    2610.937 eV)
    55      55       --        95.950 au  fA            1.00     55 A               1
                        (    2610.937 eV)
    56      56       --       615.512 au  fA            1.00     56 A               1
                        (   16748.929 eV)
    57      57      2.000    -488.531 au  fB            1.00      1 A               2
                        (  -13293.601 eV)
    58      58      2.000     -63.469 au  fB            1.00      2 A               2
                        (   -1727.081 eV)
    59      59      2.000     -56.007 au  fB            1.00      3 A               2
                        (   -1524.021 eV)
    60      60      2.000     -56.005 au  fB            1.00      4 A               2
                        (   -1523.982 eV)
    61      61      2.000     -56.005 au  fB            1.00      5 A               2
                        (   -1523.979 eV)
    62      62      2.000     -18.873 au  fB            1.00      6 A               2
                        (    -513.559 eV)
    63      63      2.000     -18.868 au  fB            1.00      7 A               2
                        (    -513.429 eV)
    64      64      2.000     -14.287 au  fB            1.00      8 A               2
                        (    -388.782 eV)
    65      65      2.000     -14.132 au  fB            1.00      9 A               2
                        (    -384.552 eV)
    66      66      2.000     -10.066 au  fB            1.00     10 A               2
                        (    -273.907 eV)
    67      67      2.000     -10.035 au  fB            1.00     11 A               2
                        (    -273.063 eV)
    68      68      2.000      -8.589 au  fB            1.00     12 A               2
                        (    -233.712 eV)
    69      69      2.000      -6.248 au  fB            1.00     13 A               2
                        (    -170.020 eV)
    70      70      2.000      -6.244 au  fB            1.00     14 A               2
                        (    -169.905 eV)
    71      71      2.000      -6.244 au  fB            1.00     15 A               2
                        (    -169.895 eV)
    72      72      2.000      -2.333 au  fB            1.00     16 A               2
                        (     -63.475 eV)
    73      73      2.000      -2.332 au  fB            1.00     17 A               2
                        (     -63.450 eV)
    74      74      2.000      -2.331 au  fB            1.00     18 A               2
                        (     -63.442 eV)
    75      75      2.000      -2.328 au  fB            1.00     19 A               2
                        (     -63.356 eV)
    76      76      2.000      -2.328 au  fB            1.00     20 A               2
                        (     -63.356 eV)
    77      77      2.000      -1.173 au  fB            1.00     21 A               2
                        (     -31.911 eV)
    78      78      2.000      -1.011 au  fB            1.00     22 A               2
                        (     -27.501 eV)
    79      79      2.000      -0.948 au  fB            1.00     23 A               2
                        (     -25.792 eV)
    80      80      2.000      -0.802 au  fB            1.00     24 A               2
                        (     -21.824 eV)
    81      81      2.000      -0.680 au  fB            1.00     25 A               2
                        (     -18.508 eV)
    82      82      2.000      -0.628 au  fB            1.00     26 A               2
                        (     -17.079 eV)
    83      83      2.000      -0.609 au  fB            1.00     27 A               2
                        (     -16.570 eV)
    84      84      2.000      -0.585 au  fB            1.00     28 A               2
                        (     -15.909 eV)
    85      85      2.000      -0.540 au  fB            1.00     29 A               2
                        (     -14.702 eV)
    86      86      2.000      -0.534 au  fB            1.00     30 A               2
                        (     -14.540 eV)
    87      87      2.000      -0.502 au  fB            1.00     31 A               2
                        (     -13.659 eV)
    88      88      2.000      -0.481 au  fB            1.00     32 A               2
                        (     -13.089 eV)
    89      89      2.000      -0.449 au  fB            1.00     33 A               2
                        (     -12.219 eV)
    90      90      2.000      -0.429 au  fB            1.00     34 A               2
                        (     -11.673 eV)
    91      91      2.000      -0.384 au  fB            1.00     35 A               2
                        (     -10.449 eV)
    92      92      2.000      -0.321 au  fB            1.00     36 A               2
                        (      -8.733 eV)
    93      93      2.000      -0.306 au  fB            1.00     37 A               2
                        (      -8.335 eV)
    94      94      2.000      -0.291 au  fB            1.00     38 A               2
                        (      -7.907 eV)
    95      95      2.000      -0.201 au  fB            1.00     39 A               2
                        (      -5.464 eV)
    96      96      2.000      -0.189 au  fB            1.00     40 A               2
                        (      -5.150 eV)
    97      97      2.000      -0.188 au  fB            1.00     41 A               2
                        (      -5.104 eV)
    98      98       --        -0.150 au  fB            1.00     42 A               2
                        (      -4.078 eV)
    99      99       --        -0.135 au  fB            1.00     43 A               2
                        (      -3.684 eV)
   100     100       --        -0.052 au  fB            1.00     44 A               2
                        (      -1.402 eV)
   101     101       --        -0.020 au  fB            1.00     45 A               2
                        (      -0.549 eV)
   102     102       --        -0.008 au  fB            1.00     46 A               2
                        (      -0.211 eV)
   103     103       --         0.021 au  fB            1.00     47 A               2
                        (       0.569 eV)
   104     104       --         0.038 au  fB            1.00     48 A               2
                        (       1.029 eV)
   105     105       --         0.041 au  fB            1.00     49 A               2
                        (       1.128 eV)
   106     106       --         0.099 au  fB            1.00     50 A               2
                        (       2.707 eV)
   107     107       --         0.106 au  fB            1.00     51 A               2
                        (       2.876 eV)
   108     108       --         0.120 au  fB            1.00     52 A               2
                        (       3.270 eV)
   109     109       --         0.135 au  fB            1.00     53 A               2
                        (       3.663 eV)
   110     110       --         0.144 au  fB            1.00     54 A               2
                        (       3.930 eV)
   111     111       --         0.162 au  fB            1.00     55 A               2
                        (       4.415 eV)
   112     112       --         0.180 au  fB            1.00     56 A               2
                        (       4.908 eV)
   113     113       --         0.196 au  fB            1.00     57 A               2
                        (       5.322 eV)
   114     114       --         0.205 au  fB            1.00     58 A               2
                        (       5.575 eV)
   115     115       --         0.216 au  fB            1.00     59 A               2
                        (       5.891 eV)
   116     116       --         0.221 au  fB            1.00     60 A               2
                        (       6.006 eV)
   117     117       --         0.239 au  fB            1.00     61 A               2
                        (       6.499 eV)
   118     118       --         0.251 au  fB            1.00     62 A               2
                        (       6.838 eV)
   119     119       --         0.267 au  fB            1.00     63 A               2
                        (       7.257 eV)
   120     120       --         0.281 au  fB            1.00     64 A               2
                        (       7.647 eV)
   121     121       --         0.296 au  fB            1.00     65 A               2
                        (       8.066 eV)
   122     122       --         0.304 au  fB            1.00     66 A               2
                        (       8.285 eV)
   123     123       --         0.318 au  fB            1.00     67 A               2
                        (       8.666 eV)
   124     124       --         0.329 au  fB            1.00     68 A               2
                        (       8.942 eV)
   125     125       --         0.333 au  fB            1.00     69 A               2
                        (       9.067 eV)
   126     126       --         0.353 au  fB            1.00     70 A               2
                        (       9.599 eV)
   127     127       --         0.364 au  fB            1.00     71 A               2
                        (       9.910 eV)
   128     128       --         0.372 au  fB            1.00     72 A               2
                        (      10.133 eV)
   129     129       --         0.385 au  fB            1.00     73 A               2
                        (      10.476 eV)
   130     130       --         0.401 au  fB            1.00     74 A               2
                        (      10.906 eV)
   131     131       --         0.405 au  fB            1.00     75 A               2
                        (      11.015 eV)
   132     132       --         0.429 au  fB            1.00     76 A               2
                        (      11.686 eV)
   133     133       --         0.457 au  fB            1.00     77 A               2
                        (      12.437 eV)
   134     134       --         0.469 au  fB            1.00     78 A               2
                        (      12.770 eV)
   135     135       --         0.486 au  fB            1.00     79 A               2
                        (      13.213 eV)
   136     136       --         0.522 au  fB            1.00     80 A               2
                        (      14.193 eV)
   137     137       --         0.538 au  fB            1.00     81 A               2
                        (      14.635 eV)
   138     138       --         0.573 au  fB            1.00     82 A               2
                        (      15.600 eV)
   139     139       --         0.614 au  fB            1.00     83 A               2
                        (      16.709 eV)
   140     140       --         0.656 au  fB            1.00     84 A               2
                        (      17.841 eV)
   141     141       --         0.674 au  fB            1.00     85 A               2
                        (      18.340 eV)
   142     142       --         0.698 au  fB            1.00     86 A               2
                        (      18.983 eV)
   143     143       --         0.721 au  fB            1.00     87 A               2
                        (      19.621 eV)
   144     144       --         0.747 au  fB            1.00     88 A               2
                        (      20.331 eV)
   145     145       --         0.801 au  fB            1.00     89 A               2
                        (      21.792 eV)
   146     146       --         0.829 au  fB            1.00     90 A               2
                        (      22.547 eV)
   147     147       --         0.860 au  fB            1.00     91 A               2
                        (      23.411 eV)
   148     148       --         0.870 au  fB            1.00     92 A               2
                        (      23.661 eV)
   149     149       --         0.909 au  fB            1.00     93 A               2
                        (      24.739 eV)
   150     150       --         0.927 au  fB            1.00     94 A               2
                        (      25.221 eV)
   151     151       --         0.939 au  fB            1.00     95 A               2
                        (      25.549 eV)
   152     152       --         0.945 au  fB            1.00     96 A               2
                        (      25.725 eV)
   153     153       --         0.961 au  fB            1.00     97 A               2
                        (      26.160 eV)
   154     154       --         0.970 au  fB            1.00     98 A               2
                        (      26.383 eV)
   155     155       --         0.987 au  fB            1.00     99 A               2
                        (      26.869 eV)
   156     156       --         1.003 au  fB            1.00    100 A               2
                        (      27.283 eV)
   157     157       --         1.013 au  fB            1.00    101 A               2
                        (      27.563 eV)
   158     158       --         1.039 au  fB            1.00    102 A               2
                        (      28.286 eV)
   159     159       --         1.057 au  fB            1.00    103 A               2
                        (      28.774 eV)
   160     160       --         1.077 au  fB            1.00    104 A               2
                        (      29.297 eV)
   161     161       --         1.091 au  fB            1.00    105 A               2
                        (      29.699 eV)
   162     162       --         1.116 au  fB            1.00    106 A               2
                        (      30.372 eV)
   163     163       --         1.130 au  fB            1.00    107 A               2
                        (      30.741 eV)
   164     164       --         1.169 au  fB            1.00    108 A               2
                        (      31.816 eV)
   165     165       --         1.188 au  fB            1.00    109 A               2
                        (      32.315 eV)
   166     166       --         1.230 au  fB            1.00    110 A               2
                        (      33.473 eV)
   167     167       --         1.245 au  fB            1.00    111 A               2
                        (      33.873 eV)
   168     168       --         1.268 au  fB            1.00    112 A               2
                        (      34.499 eV)
   169     169       --         1.278 au  fB            1.00    113 A               2
                        (      34.771 eV)
   170     170       --         1.304 au  fB            1.00    114 A               2
                        (      35.486 eV)
   171     171       --         1.336 au  fB            1.00    115 A               2
                        (      36.348 eV)
   172     172       --         1.339 au  fB            1.00    116 A               2
                        (      36.440 eV)
   173     173       --         1.346 au  fB            1.00    117 A               2
                        (      36.629 eV)
   174     174       --         1.375 au  fB            1.00    118 A               2
                        (      37.419 eV)
   175     175       --         1.407 au  fB            1.00    119 A               2
                        (      38.290 eV)
   176     176       --         1.434 au  fB            1.00    120 A               2
                        (      39.021 eV)
   177     177       --         1.473 au  fB            1.00    121 A               2
                        (      40.095 eV)
   178     178       --         1.497 au  fB            1.00    122 A               2
                        (      40.734 eV)
   179     179       --         1.540 au  fB            1.00    123 A               2
                        (      41.893 eV)
   180     180       --         1.598 au  fB            1.00    124 A               2
                        (      43.483 eV)
   181     181       --         1.635 au  fB            1.00    125 A               2
                        (      44.493 eV)
   182     182       --         1.671 au  fB            1.00    126 A               2
                        (      45.477 eV)
   183     183       --         1.707 au  fB            1.00    127 A               2
                        (      46.440 eV)
   184     184       --         1.775 au  fB            1.00    128 A               2
                        (      48.307 eV)
   185     185       --         1.804 au  fB            1.00    129 A               2
                        (      49.092 eV)
   186     186       --         1.816 au  fB            1.00    130 A               2
                        (      49.418 eV)
   187     187       --         1.823 au  fB            1.00    131 A               2
                        (      49.601 eV)
   188     188       --         1.850 au  fB            1.00    132 A               2
                        (      50.337 eV)
   189     189       --         1.913 au  fB            1.00    133 A               2
                        (      52.043 eV)
   190     190       --         1.951 au  fB            1.00    134 A               2
                        (      53.097 eV)
   191     191       --         2.017 au  fB            1.00    135 A               2
                        (      54.882 eV)
   192     192       --         2.048 au  fB            1.00    136 A               2
                        (      55.737 eV)
   193     193       --         2.069 au  fB            1.00    137 A               2
                        (      56.309 eV)
   194     194       --         2.112 au  fB            1.00    138 A               2
                        (      57.475 eV)
   195     195       --         2.178 au  fB            1.00    139 A               2
                        (      59.278 eV)
   196     196       --         2.198 au  fB            1.00    140 A               2
                        (      59.816 eV)
   197     197       --         2.221 au  fB            1.00    141 A               2
                        (      60.424 eV)
   198     198       --         2.280 au  fB            1.00    142 A               2
                        (      62.034 eV)
   199     199       --         2.294 au  fB            1.00    143 A               2
                        (      62.422 eV)
   200     200       --         2.398 au  fB            1.00    144 A               2
                        (      65.241 eV)
   201     201       --         2.416 au  fB            1.00    145 A               2
                        (      65.733 eV)
   202     202       --         2.444 au  fB            1.00    146 A               2
                        (      66.506 eV)
   203     203       --         2.473 au  fB            1.00    147 A               2
                        (      67.302 eV)
   204     204       --         2.584 au  fB            1.00    148 A               2
                        (      70.327 eV)
   205     205       --         2.592 au  fB            1.00    149 A               2
                        (      70.521 eV)
   206     206       --         2.624 au  fB            1.00    150 A               2
                        (      71.411 eV)
   207     207       --         2.709 au  fB            1.00    151 A               2
                        (      73.725 eV)
   208     208       --         2.717 au  fB            1.00    152 A               2
                        (      73.922 eV)
   209     209       --         2.761 au  fB            1.00    153 A               2
                        (      75.136 eV)
   210     210       --         2.778 au  fB            1.00    154 A               2
                        (      75.587 eV)
   211     211       --         2.801 au  fB            1.00    155 A               2
                        (      76.224 eV)
   212     212       --         2.814 au  fB            1.00    156 A               2
                        (      76.582 eV)
   213     213       --         2.822 au  fB            1.00    157 A               2
                        (      76.791 eV)
   214     214       --         2.846 au  fB            1.00    158 A               2
                        (      77.442 eV)
   215     215       --         2.875 au  fB            1.00    159 A               2
                        (      78.231 eV)
   216     216       --         2.912 au  fB            1.00    160 A               2
                        (      79.229 eV)
   217     217       --         2.938 au  fB            1.00    161 A               2
                        (      79.960 eV)
   218     218       --         2.977 au  fB            1.00    162 A               2
                        (      80.995 eV)
   219     219       --         3.015 au  fB            1.00    163 A               2
                        (      82.030 eV)
   220     220       --         3.051 au  fB            1.00    164 A               2
                        (      83.018 eV)
   221     221       --         3.111 au  fB            1.00    165 A               2
                        (      84.661 eV)
   222     222       --         3.153 au  fB            1.00    166 A               2
                        (      85.790 eV)
   223     223       --         3.218 au  fB            1.00    167 A               2
                        (      87.563 eV)
   224     224       --         3.235 au  fB            1.00    168 A               2
                        (      88.019 eV)
   225     225       --         3.260 au  fB            1.00    169 A               2
                        (      88.697 eV)
   226     226       --         3.318 au  fB            1.00    170 A               2
                        (      90.276 eV)
   227     227       --         3.330 au  fB            1.00    171 A               2
                        (      90.620 eV)
   228     228       --         3.361 au  fB            1.00    172 A               2
                        (      91.447 eV)
   229     229       --         3.381 au  fB            1.00    173 A               2
                        (      92.000 eV)
   230     230       --         3.415 au  fB            1.00    174 A               2
                        (      92.929 eV)
   231     231       --         3.454 au  fB            1.00    175 A               2
                        (      93.982 eV)
   232     232       --         3.464 au  fB            1.00    176 A               2
                        (      94.264 eV)
   233     233       --         3.472 au  fB            1.00    177 A               2
                        (      94.476 eV)
   234     234       --         3.475 au  fB            1.00    178 A               2
                        (      94.562 eV)
   235     235       --         3.536 au  fB            1.00    179 A               2
                        (      96.218 eV)
   236     236       --         3.548 au  fB            1.00    180 A               2
                        (      96.540 eV)
   237     237       --         3.607 au  fB            1.00    181 A               2
                        (      98.150 eV)
   238     238       --         3.642 au  fB            1.00    182 A               2
                        (      99.102 eV)
   239     239       --         3.667 au  fB            1.00    183 A               2
                        (      99.791 eV)
   240     240       --         3.743 au  fB            1.00    184 A               2
                        (     101.840 eV)
   241     241       --         3.750 au  fB            1.00    185 A               2
                        (     102.031 eV)
   242     242       --         3.810 au  fB            1.00    186 A               2
                        (     103.683 eV)
   243     243       --         3.900 au  fB            1.00    187 A               2
                        (     106.112 eV)
   244     244       --         3.939 au  fB            1.00    188 A               2
                        (     107.192 eV)
   245     245       --         3.950 au  fB            1.00    189 A               2
                        (     107.498 eV)
   246     246       --         3.967 au  fB            1.00    190 A               2
                        (     107.961 eV)
   247     247       --         4.037 au  fB            1.00    191 A               2
                        (     109.853 eV)
   248     248       --         4.051 au  fB            1.00    192 A               2
                        (     110.224 eV)
   249     249       --         4.107 au  fB            1.00    193 A               2
                        (     111.759 eV)
   250     250       --         4.145 au  fB            1.00    194 A               2
                        (     112.803 eV)
   251     251       --         4.169 au  fB            1.00    195 A               2
                        (     113.438 eV)
   252     252       --         4.190 au  fB            1.00    196 A               2
                        (     114.024 eV)
   253     253       --         4.310 au  fB            1.00    197 A               2
                        (     117.280 eV)
   254     254       --         4.314 au  fB            1.00    198 A               2
                        (     117.403 eV)
   255     255       --         4.403 au  fB            1.00    199 A               2
                        (     119.824 eV)
   256     256       --         4.413 au  fB            1.00    200 A               2
                        (     120.095 eV)
   257     257       --         4.470 au  fB            1.00    201 A               2
                        (     121.642 eV)
   258     258       --         4.488 au  fB            1.00    202 A               2
                        (     122.134 eV)
   259     259       --         4.546 au  fB            1.00    203 A               2
                        (     123.702 eV)
   260     260       --         4.682 au  fB            1.00    204 A               2
                        (     127.403 eV)
   261     261       --         4.706 au  fB            1.00    205 A               2
                        (     128.063 eV)
   262     262       --         4.749 au  fB            1.00    206 A               2
                        (     129.234 eV)
   263     263       --         4.809 au  fB            1.00    207 A               2
                        (     130.853 eV)
   264     264       --         4.812 au  fB            1.00    208 A               2
                        (     130.954 eV)
   265     265       --         4.851 au  fB            1.00    209 A               2
                        (     132.008 eV)
   266     266       --         4.910 au  fB            1.00    210 A               2
                        (     133.594 eV)
   267     267       --         5.007 au  fB            1.00    211 A               2
                        (     136.240 eV)
   268     268       --         5.051 au  fB            1.00    212 A               2
                        (     137.456 eV)
   269     269       --         5.135 au  fB            1.00    213 A               2
                        (     139.720 eV)
   270     270       --         5.178 au  fB            1.00    214 A               2
                        (     140.890 eV)
   271     271       --         5.284 au  fB            1.00    215 A               2
                        (     143.773 eV)
   272     272       --         5.422 au  fB            1.00    216 A               2
                        (     147.529 eV)
   273     273       --         5.521 au  fB            1.00    217 A               2
                        (     150.241 eV)
   274     274       --         5.532 au  fB            1.00    218 A               2
                        (     150.542 eV)
   275     275       --         5.652 au  fB            1.00    219 A               2
                        (     153.811 eV)
   276     276       --         5.665 au  fB            1.00    220 A               2
                        (     154.164 eV)
   277     277       --         5.847 au  fB            1.00    221 A               2
                        (     159.094 eV)
   278     278       --         5.998 au  fB            1.00    222 A               2
                        (     163.205 eV)
   279     279       --         6.008 au  fB            1.00    223 A               2
                        (     163.479 eV)
   280     280       --         6.158 au  fB            1.00    224 A               2
                        (     167.577 eV)
   281     281       --         6.273 au  fB            1.00    225 A               2
                        (     170.690 eV)
   282     282       --         6.361 au  fB            1.00    226 A               2
                        (     173.089 eV)
   283     283       --         6.413 au  fB            1.00    227 A               2
                        (     174.499 eV)
   284     284       --         6.447 au  fB            1.00    228 A               2
                        (     175.437 eV)
   285     285       --         6.537 au  fB            1.00    229 A               2
                        (     177.868 eV)
   286     286       --         6.588 au  fB            1.00    230 A               2
                        (     179.255 eV)
   287     287       --         6.628 au  fB            1.00    231 A               2
                        (     180.354 eV)
   288     288       --         6.794 au  fB            1.00    232 A               2
                        (     184.873 eV)
   289     289       --         6.870 au  fB            1.00    233 A               2
                        (     186.954 eV)
   290     290       --         6.972 au  fB            1.00    234 A               2
                        (     189.715 eV)
   291     291       --         7.176 au  fB            1.00    235 A               2
                        (     195.263 eV)
   292     292       --         7.407 au  fB            1.00    236 A               2
                        (     201.558 eV)
   293     293       --         7.433 au  fB            1.00    237 A               2
                        (     202.249 eV)
   294     294       --         7.571 au  fB            1.00    238 A               2
                        (     206.028 eV)
   295     295       --         7.744 au  fB            1.00    239 A               2
                        (     210.730 eV)
   296     296       --         8.214 au  fB            1.00    240 A               2
                        (     223.524 eV)
   297     297       --         8.383 au  fB            1.00    241 A               2
                        (     228.107 eV)
   298     298       --         8.928 au  fB            1.00    242 A               2
                        (     242.938 eV)
   299     299       --         8.951 au  fB            1.00    243 A               2
                        (     243.565 eV)
   300     300       --         8.986 au  fB            1.00    244 A               2
                        (     244.527 eV)
   301     301       --         9.138 au  fB            1.00    245 A               2
                        (     248.646 eV)
   302     302       --         9.325 au  fB            1.00    246 A               2
                        (     253.758 eV)
   303     303       --         9.514 au  fB            1.00    247 A               2
                        (     258.899 eV)
   304     304       --        10.449 au  fB            1.00    248 A               2
                        (     284.325 eV)
   305     305       --        10.642 au  fB            1.00    249 A               2
                        (     289.572 eV)
   306     306       --        14.341 au  fB            1.00    250 A               2
                        (     390.231 eV)
   307     307       --        15.683 au  fB            1.00    251 A               2
                        (     426.767 eV)
   308     308       --        16.000 au  fB            1.00    252 A               2
                        (     435.374 eV)
   309     309       --        20.678 au  fB            1.00    253 A               2
                        (     562.677 eV)
   310     310       --        20.715 au  fB            1.00    254 A               2
                        (     563.671 eV)
   311     311       --        20.846 au  fB            1.00    255 A               2
                        (     567.262 eV)
   312     312       --        20.933 au  fB            1.00    256 A               2
                        (     569.622 eV)
   313     313       --        20.975 au  fB            1.00    257 A               2
                        (     570.753 eV)
   314     314       --        55.535 au  fB            1.00    258 A               2
                        (    1511.189 eV)
   315     315       --        58.978 au  fB            1.00    259 A               2
                        (    1604.875 eV)
   316     316       --        71.021 au  fB            1.00    260 A               2
                        (    1932.567 eV)
   317     317       --        72.131 au  fB            1.00    261 A               2
                        (    1962.786 eV)
   318     318       --        95.879 au  fB            1.00    262 A               2
                        (    2609.005 eV)
   319     319       --        95.955 au  fB            1.00    263 A               2
                        (    2611.068 eV)
   320     320       --        96.208 au  fB            1.00    264 A               2
                        (    2617.950 eV)
   321     321       --       127.965 au  fB            1.00    265 A               2
                        (    3482.100 eV)
   322     322       --       128.995 au  fB            1.00    266 A               2
                        (    3510.132 eV)
   323     323       --       617.887 au  fB            1.00    267 A               2
                        (   16813.547 eV)



 ================================
 (Slater-type)  F U N C T I O N S  ***  (Basis and Fit)  ***
 ================================
  

 Atom Type    1  (Br)
 ==============

 Valence Basis Sets:  20
 -----------------------
   1 S   41.300000
   1 S   32.800000
   2 S   13.900000
   2 P   19.450000
   2 P   13.100000
   3 S    7.200000
   3 S    4.950000
   3 P    7.900000
   3 P    5.050000
   3 D   10.900000
   3 D    6.050000
   3 D    3.500000
   4 S    4.500000
   4 S    2.800000
   4 S    1.800000
   4 P    3.250000
   4 P    1.950000
   4 P    1.200000
   4 D    1.800000
   4 F    1.800000

 Atom Type    2  (C)
 ==============

 Valence Basis Sets:  10
 -----------------------
   1 S    7.680000
   1 S    5.000000
   2 S    1.280000
   2 S    2.100000
   2 S    4.600000
   2 P    0.820000
   2 P    1.480000
   2 P    2.940000
   3 D    2.200000
   4 F    3.300000

 Atom Type    3  (H)
 ==============

 Valence Basis Sets:   5
 -----------------------
   1 S    0.690000
   1 S    0.920000
   1 S    1.580000
   2 P    1.250000
   3 D    2.500000

 Atom Type    4  (Br)
 ==============

 Valence Basis Sets:  20
 -----------------------
   1 S   41.300000
   1 S   32.800000
   2 S   13.900000
   2 P   19.450000
   2 P   13.100000
   3 S    7.200000
   3 S    4.950000
   3 P    7.900000
   3 P    5.050000
   3 D   10.900000
   3 D    6.050000
   3 D    3.500000
   4 S    4.500000
   4 S    2.800000
   4 S    1.800000
   4 P    3.250000
   4 P    1.950000
   4 P    1.200000
   4 D    1.800000
   4 F    1.800000

 Atom Type    5  (N)
 ==============

 Valence Basis Sets:  10
 -----------------------
   1 S    8.740000
   1 S    5.900000
   2 S    5.150000
   2 S    2.500000
   2 S    1.500000
   2 P    3.680000
   2 P    1.880000
   2 P    1.000000
   3 D    2.200000
   4 F    3.300000

 Atom Type    6  (O)
 ==============

 Valence Basis Sets:  10
 -----------------------
   1 S    9.800000
   1 S    6.800000
   2 S    7.580000
   2 S    2.880000
   2 S    1.720000
   2 P    4.080000
   2 P    2.080000
   2 P    1.120000
   3 D    2.000000
   4 F    3.000000


 BAS: List of all Elementary Cartesian Basis Functions
 =====================================================

 The numbering in the list below (to the right of the function characteristics) is referred
 to in print-outs of MO eigenvectors and Mulliken populations in the BAS representation
 (as contrasted to the SFO representation).

 Notes:
 1. The functions are characterized by a polynomial prefactor (powers of x,y,z and r) and
    an exponential decay factor alpha.
 2. Since the basis sets are specific for an atom TYPE, the individual functions occur on
    all atoms of that type.
 3. The word 'Core' in the left margin signals that it is a Core Function (CF) : not a
    degree of freedom in the valence set, but only used to ensure orthogonalization of
    the other valence basis functions on the frozen Core Orbitals.


 (power of) X  Y  Z  R     Alpha  on Atom
            ==========     =====     ==========

 Br                                   1
                                  ---------------------------------------------------------------------------
            0  0  0  0    41.300      1
            0  0  0  0    32.800      2
            0  0  0  1    13.900      3
            1  0  0  0    19.450      4
            0  1  0  0    19.450      5
            0  0  1  0    19.450      6
            1  0  0  0    13.100      7
            0  1  0  0    13.100      8
            0  0  1  0    13.100      9
            0  0  0  2     7.200     10
            0  0  0  2     4.950     11
            1  0  0  1     7.900     12
            0  1  0  1     7.900     13
            0  0  1  1     7.900     14
            1  0  0  1     5.050     15
            0  1  0  1     5.050     16
            0  0  1  1     5.050     17
            2  0  0  0    10.900     18
            1  1  0  0    10.900     19
            1  0  1  0    10.900     20
            0  2  0  0    10.900     21
            0  1  1  0    10.900     22
            0  0  2  0    10.900     23
            2  0  0  0     6.050     24
            1  1  0  0     6.050     25
            1  0  1  0     6.050     26
            0  2  0  0     6.050     27
            0  1  1  0     6.050     28
            0  0  2  0     6.050     29
            2  0  0  0     3.500     30
            1  1  0  0     3.500     31
            1  0  1  0     3.500     32
            0  2  0  0     3.500     33
            0  1  1  0     3.500     34
            0  0  2  0     3.500     35
            0  0  0  3     4.500     36
            0  0  0  3     2.800     37
            0  0  0  3     1.800     38
            1  0  0  2     3.250     39
            0  1  0  2     3.250     40
            0  0  1  2     3.250     41
            1  0  0  2     1.950     42
            0  1  0  2     1.950     43
            0  0  1  2     1.950     44
            1  0  0  2     1.200     45
            0  1  0  2     1.200     46
            0  0  1  2     1.200     47
            2  0  0  1     1.800     48
            1  1  0  1     1.800     49
            1  0  1  1     1.800     50
            0  2  0  1     1.800     51
            0  1  1  1     1.800     52
            0  0  2  1     1.800     53
            3  0  0  0     1.800     54
            2  1  0  0     1.800     55
            2  0  1  0     1.800     56
            1  2  0  0     1.800     57
            1  1  1  0     1.800     58
            1  0  2  0     1.800     59
            0  3  0  0     1.800     60
            0  2  1  0     1.800     61
            0  1  2  0     1.800     62
            0  0  3  0     1.800     63

 C                                    2    3
                                  ---------------------------------------------------------------------------
            0  0  0  0     7.680     64   94
            0  0  0  0     5.000     65   95
            0  0  0  1     1.280     66   96
            0  0  0  1     2.100     67   97
            0  0  0  1     4.600     68   98
            1  0  0  0     0.820     69   99
            0  1  0  0     0.820     70  100
            0  0  1  0     0.820     71  101
            1  0  0  0     1.480     72  102
            0  1  0  0     1.480     73  103
            0  0  1  0     1.480     74  104
            1  0  0  0     2.940     75  105
            0  1  0  0     2.940     76  106
            0  0  1  0     2.940     77  107
            2  0  0  0     2.200     78  108
            1  1  0  0     2.200     79  109
            1  0  1  0     2.200     80  110
            0  2  0  0     2.200     81  111
            0  1  1  0     2.200     82  112
            0  0  2  0     2.200     83  113
            3  0  0  0     3.300     84  114
            2  1  0  0     3.300     85  115
            2  0  1  0     3.300     86  116
            1  2  0  0     3.300     87  117
            1  1  1  0     3.300     88  118
            1  0  2  0     3.300     89  119
            0  3  0  0     3.300     90  120
            0  2  1  0     3.300     91  121
            0  1  2  0     3.300     92  122
            0  0  3  0     3.300     93  123

 H                                    4    5    6    7    8
                                  ---------------------------------------------------------------------------
            0  0  0  0     0.690    124  136  148  160  172
            0  0  0  0     0.920    125  137  149  161  173
            0  0  0  0     1.580    126  138  150  162  174
            1  0  0  0     1.250    127  139  151  163  175
            0  1  0  0     1.250    128  140  152  164  176
            0  0  1  0     1.250    129  141  153  165  177
            2  0  0  0     2.500    130  142  154  166  178
            1  1  0  0     2.500    131  143  155  167  179
            1  0  1  0     2.500    132  144  156  168  180
            0  2  0  0     2.500    133  145  157  169  181
            0  1  1  0     2.500    134  146  158  170  182
            0  0  2  0     2.500    135  147  159  171  183

 Br                                   9
                                  ---------------------------------------------------------------------------
            0  0  0  0    41.300    184
            0  0  0  0    32.800    185
            0  0  0  1    13.900    186
            1  0  0  0    19.450    187
            0  1  0  0    19.450    188
            0  0  1  0    19.450    189
            1  0  0  0    13.100    190
            0  1  0  0    13.100    191
            0  0  1  0    13.100    192
            0  0  0  2     7.200    193
            0  0  0  2     4.950    194
            1  0  0  1     7.900    195
            0  1  0  1     7.900    196
            0  0  1  1     7.900    197
            1  0  0  1     5.050    198
            0  1  0  1     5.050    199
            0  0  1  1     5.050    200
            2  0  0  0    10.900    201
            1  1  0  0    10.900    202
            1  0  1  0    10.900    203
            0  2  0  0    10.900    204
            0  1  1  0    10.900    205
            0  0  2  0    10.900    206
            2  0  0  0     6.050    207
            1  1  0  0     6.050    208
            1  0  1  0     6.050    209
            0  2  0  0     6.050    210
            0  1  1  0     6.050    211
            0  0  2  0     6.050    212
            2  0  0  0     3.500    213
            1  1  0  0     3.500    214
            1  0  1  0     3.500    215
            0  2  0  0     3.500    216
            0  1  1  0     3.500    217
            0  0  2  0     3.500    218
            0  0  0  3     4.500    219
            0  0  0  3     2.800    220
            0  0  0  3     1.800    221
            1  0  0  2     3.250    222
            0  1  0  2     3.250    223
            0  0  1  2     3.250    224
            1  0  0  2     1.950    225
            0  1  0  2     1.950    226
            0  0  1  2     1.950    227
            1  0  0  2     1.200    228
            0  1  0  2     1.200    229
            0  0  1  2     1.200    230
            2  0  0  1     1.800    231
            1  1  0  1     1.800    232
            1  0  1  1     1.800    233
            0  2  0  1     1.800    234
            0  1  1  1     1.800    235
            0  0  2  1     1.800    236
            3  0  0  0     1.800    237
            2  1  0  0     1.800    238
            2  0  1  0     1.800    239
            1  2  0  0     1.800    240
            1  1  1  0     1.800    241
            1  0  2  0     1.800    242
            0  3  0  0     1.800    243
            0  2  1  0     1.800    244
            0  1  2  0     1.800    245
            0  0  3  0     1.800    246

 N                                   10   11
                                  ---------------------------------------------------------------------------
            0  0  0  0     8.740    247  277
            0  0  0  0     5.900    248  278
            0  0  0  1     5.150    249  279
            0  0  0  1     2.500    250  280
            0  0  0  1     1.500    251  281
            1  0  0  0     3.680    252  282
            0  1  0  0     3.680    253  283
            0  0  1  0     3.680    254  284
            1  0  0  0     1.880    255  285
            0  1  0  0     1.880    256  286
            0  0  1  0     1.880    257  287
            1  0  0  0     1.000    258  288
            0  1  0  0     1.000    259  289
            0  0  1  0     1.000    260  290
            2  0  0  0     2.200    261  291
            1  1  0  0     2.200    262  292
            1  0  1  0     2.200    263  293
            0  2  0  0     2.200    264  294
            0  1  1  0     2.200    265  295
            0  0  2  0     2.200    266  296
            3  0  0  0     3.300    267  297
            2  1  0  0     3.300    268  298
            2  0  1  0     3.300    269  299
            1  2  0  0     3.300    270  300
            1  1  1  0     3.300    271  301
            1  0  2  0     3.300    272  302
            0  3  0  0     3.300    273  303
            0  2  1  0     3.300    274  304
            0  1  2  0     3.300    275  305
            0  0  3  0     3.300    276  306

 O                                   12   13
                                  ---------------------------------------------------------------------------
            0  0  0  0     9.800    307  337
            0  0  0  0     6.800    308  338
            0  0  0  1     7.580    309  339
            0  0  0  1     2.880    310  340
            0  0  0  1     1.720    311  341
            1  0  0  0     4.080    312  342
            0  1  0  0     4.080    313  343
            0  0  1  0     4.080    314  344
            1  0  0  0     2.080    315  345
            0  1  0  0     2.080    316  346
            0  0  1  0     2.080    317  347
            1  0  0  0     1.120    318  348
            0  1  0  0     1.120    319  349
            0  0  1  0     1.120    320  350
            2  0  0  0     2.000    321  351
            1  1  0  0     2.000    322  352
            1  0  1  0     2.000    323  353
            0  2  0  0     2.000    324  354
            0  1  1  0     2.000    325  355
            0  0  2  0     2.000    326  356
            3  0  0  0     3.000    327  357
            2  1  0  0     3.000    328  358
            2  0  1  0     3.000    329  359
            1  2  0  0     3.000    330  360
            1  1  1  0     3.000    331  361
            1  0  2  0     3.000    332  362
            0  3  0  0     3.000    333  363
            0  2  1  0     3.000    334  364
            0  1  2  0     3.000    335  365
            0  0  3  0     3.000    336  366

 Total number of charge fitting functions (nprimf)      1094
 Total number of Cartesian basis functions (naos)        366
 Total number of Cartesian core functions  (ncos)          0

 ***************************************************************************************************



                                              ***********************
                                              *  T E C H N I C A L  *
                                              ***********************
  



 =============================================================
 P A R A L L E L I Z A T I O N  and  V E C T O R I Z A T I O N
 =============================================================
  
 Nr of parallel processes:                                1
 Maximum vector length in NumInt loops:                 128



 =====================
 S C F   U P D A T E S
 =====================
  
 Max. nr. of cycles:                               200
 Convergence criterion:                              0.0000010000
   secondary criterion:                              0.0010000000

 Mix parameter (when DIIS does not apply):           0.2000000000
 Mixed ADIIS+SDIIS will be used                  
    Max number of expansion vectors:                10
    Pure ADIIS when Max([F,P]) is above              0.1000000000
    Pure SDIIS when Max([F,P]) is below              0.0010000000
 Automatic ElectronSmearing (in case of problematic SCF convergence) disabled



 =================
 P R E C I S I O N  ***  (General: NumInt, NeglectFunctionTails, ...)  ***
 =================
  

 NumInt:           Target precision:                 4.0000000000
 -------           Initial precision:                4.0000000000
                   Min. precision (optimization):    4.0000000000

 Neglect Functions:          Basis functions:        0.1000000000E-05
 ------------------          Fit functions:          0.1000000000E-05



 ===========================
 L I N E A R   S C A L I N G
 ===========================
  

 Cut-off radii density fit:                        0.1000000000E-07
 Overlap cut-off criterion AO matrix elements:     0.1000000000E-05
 Cut-offs for Coulomb potential and fitted density:0.1000000000E-07
 Cut-off criterion for Coulomb multipole terms:    0.1000000000E-07
 Progressive Convergence parameter:                 0.000000000    
 ***************************************************************************************************



                                            ***************************
                                            *  C O M P U T A T I O N  *
                                            ***************************
  

 Number of elements of the density matrix on this node (used, total):     67161     67161



 ===========================================
 Numerical Integration : Fuzzy Cells (Becke)
 ===========================================
  
 Becke grid quality: NORMAL         
  
 Lebedev angular grid order:             min:  11 max:  23
 Nr. of radial points:                   min:  46 max:  77

 Total nr. of points:      92278
 Nr. of blocks:              721
 Block length:               128
 Nr. of dummy points:         10


 Test of Precision of the Numerical Integration Grid
 ===================================================

 Integral of the Total Core Density:                   0.00000000000000



 ========================
 Density Fitting (zlmFit)
 ========================
  
 ZlmFit Fit Quality: NORMAL         
  
 Max L-expansion:                        min:   6 max:   7
 Nr. of radial interpolation points:     min:  39 max:  72



 =====
 S C F  ***  ScaSCF  ***
 =====
  
 Initial density matrix is calculated as sum of fragments

 CYCLE    1
 SCF Error: norm([F,P])=      0.984328671227, max([F,P])=      0.346240857295
 orbitals (Q,E):
 ---------------
 A :50...69          ( 2.00    -0.2280)  ( 2.00    -0.2065)  ( 2.00    -0.1865)  ( 2.00    -0.1769)
                     ( 2.00    -0.1009)  ( 2.00    -0.0968)  ( 2.00    -0.0955)  ( 2.00    -0.0366)
                     ( 2.00    -0.0298)  ( 2.00    -0.0271)  ( 0.00    -0.0238)  ( 0.00     0.0389)
                     ( 0.00     0.0834)  ( 0.00     0.1236)  ( 0.00     0.1259)  ( 0.00     0.1666)
                     ( 0.00     0.1787)  ( 0.00     0.1794)  ( 0.00     0.2267)  ( 0.00     0.2386)

 CYCLE    2
   MIX coefficients:  0.8000  0.2000
 SCF Error: norm([F,P])=      1.004521618171, max([F,P])=      0.526949634975
 orbitals (Q,E):
 ---------------
 A :50...60          ( 2.00    -0.2237)  ( 2.00    -0.1450)  ( 2.00    -0.1331)  ( 2.00    -0.1167)
                     ( 2.00    -0.1016)  ( 2.00    -0.0969)  ( 2.00    -0.0949)  ( 2.00    -0.0789)
                     ( 2.00    -0.0748)  ( 2.00    -0.0733)  ( 0.00     0.0290)

 CYCLE    3
  SDIIS (wt  0.000):  0.2216  0.7784
 A-DIIS (wt  1.000):  0.1510  0.8490
  DIIS coefficients:  0.1510  0.8490
 SCF Error: norm([F,P])=      0.365119597468, max([F,P])=      0.065436433405
 orbitals (Q,E):
 ---------------
 A :50...60          ( 2.00    -0.2573)  ( 2.00    -0.2096)  ( 2.00    -0.1968)  ( 2.00    -0.1809)
                     ( 2.00    -0.0762)  ( 2.00    -0.0676)  ( 2.00    -0.0648)  ( 2.00    -0.0503)
                     ( 2.00    -0.0441)  ( 2.00    -0.0393)  ( 0.00    -0.0375)

 CYCLE    4
  SDIIS (wt  0.000):  0.1560  0.7529  0.0912
 A-DIIS (wt  1.000):  0.1226  0.8382  0.0392
  DIIS coefficients:  0.1226  0.8382  0.0392
 SCF Error: norm([F,P])=      1.560856933337, max([F,P])=      0.768784953508
 orbitals (Q,E):
 ---------------
 A :50...60          ( 2.00    -0.2519)  ( 2.00    -0.1993)  ( 2.00    -0.1866)  ( 2.00    -0.1710)
                     ( 2.00    -0.0711)  ( 2.00    -0.0628)  ( 2.00    -0.0600)  ( 2.00    -0.0582)
                     ( 2.00    -0.0565)  ( 2.00    -0.0546)  ( 0.00    -0.0313)

 CYCLE    5
  SDIIS (wt  0.000):  0.0553  0.5535  0.0148  0.3765
 A-DIIS (wt  1.000):  0.0000  0.5222  0.0000  0.4778
  DIIS coefficients:  0.0000  0.5222  0.0000  0.4778
 SCF Error: norm([F,P])=      0.413779102628, max([F,P])=      0.081329657547
 orbitals (Q,E):
 ---------------
 A :50...60          ( 2.00    -0.2211)  ( 2.00    -0.2072)  ( 2.00    -0.1898)  ( 2.00    -0.1805)
                     ( 2.00    -0.0713)  ( 2.00    -0.0685)  ( 2.00    -0.0658)  ( 2.00    -0.0638)
                     ( 2.00    -0.0620)  ( 2.00    -0.0601)  ( 0.00    -0.0318)

 CYCLE    6
  SDIIS (wt  0.637): -0.0162  0.3444 -0.0030  0.3407  0.3342
 A-DIIS (wt  0.363):  0.0000  0.2522  0.0000  0.2678  0.4800
  DIIS coefficients: -0.0103  0.3109 -0.0019  0.3142  0.3871
[...]
                                    1.24%    46 A              -0.211  0.00     2 fB
                                    1.04%    50 A               2.707  0.00     2 fB
      -0.08666         3 A         51.11%    16 A               0.483  2.00     1 fA
                                   10.44%    19 A               9.586  0.00     1 fA
                                    8.02%    46 A              -0.211  0.00     2 fB
                                    5.87%    39 A              -5.464  2.00     2 fB
                                    4.33%    47 A               0.569  0.00     2 fB
                                    2.31%    49 A               1.128  0.00     2 fB
                                    2.09%    24 A              15.187  0.00     1 fA
                                    2.05%    17 A               0.483  2.00     1 fA
                                    1.75%    55 A               4.415  0.00     2 fB
                                    1.06%    44 A              -1.402  0.00     2 fB
       0.08666       321 A         31.17%    16 A               0.483  2.00     1 fA
                                   16.19%    46 A              -0.211  0.00     2 fB
                                   13.05%    19 A               9.586  0.00     1 fA
                                    6.91%    47 A               0.569  0.00     2 fB
                                    4.60%    39 A              -5.464  2.00     2 fB
                                    3.11%    52 A               3.270  0.00     2 fB
                                    2.67%    50 A               2.707  0.00     2 fB
                                    2.56%    49 A               1.128  0.00     2 fB
                                    2.26%    44 A              -1.402  0.00     2 fB
                                    2.21%    24 A              15.187  0.00     1 fA
                                    1.75%    55 A               4.415  0.00     2 fB
                                    1.31%    45 A              -0.549  0.00     2 fB
                                    1.04%    56 A               4.908  0.00     2 fB
      -0.06464         4 A         26.07%    39 A              -5.464  2.00     2 fB
                                   19.51%    20 A               9.586  0.00     1 fA
                                    8.82%    17 A               0.483  2.00     1 fA
                                    6.22%    18 A               0.483  2.00     1 fA
                                    5.09%    21 A               9.586  0.00     1 fA
                                    4.68%    53 A               3.663  0.00     2 fB
                                    3.14%    33 A             -12.219  2.00     2 fB
                                    3.09%    35 A             -10.449  2.00     2 fB
                                    2.20%    56 A               4.908  0.00     2 fB
                                    1.97%    26 A              15.187  0.00     1 fA
                                    1.94%    27 A              15.187  0.00     1 fA
                                    1.82%    49 A               1.128  0.00     2 fB
                                    1.79%    55 A               4.415  0.00     2 fB
                                    1.67%    23 A              15.187  0.00     1 fA
                                    1.58%    60 A               6.006  0.00     2 fB
                                    1.51%    16 A               0.483  2.00     1 fA
                                    1.48%    45 A              -0.549  0.00     2 fB
                                    1.26%    52 A               3.270  0.00     2 fB
                                    1.11%    58 A               5.575  0.00     2 fB
       0.06464       320 A         23.04%    39 A              -5.464  2.00     2 fB
                                   15.07%    20 A               9.586  0.00     1 fA
                                   10.48%    17 A               0.483  2.00     1 fA
                                    6.31%    53 A               3.663  0.00     2 fB
                                    4.84%    21 A               9.586  0.00     1 fA
                                    3.97%    35 A             -10.449  2.00     2 fB
                                    3.67%    33 A             -12.219  2.00     2 fB
                                    3.35%    26 A              15.187  0.00     1 fA
                                    2.98%    18 A               0.483  2.00     1 fA
                                    2.73%    27 A              15.187  0.00     1 fA
                                    2.29%    56 A               4.908  0.00     2 fB
                                    2.24%    23 A              15.187  0.00     1 fA
                                    2.04%    46 A              -0.211  0.00     2 fB
                                    1.67%    60 A               6.006  0.00     2 fB
                                    1.55%    45 A              -0.549  0.00     2 fB
                                    1.31%    32 A             -13.089  2.00     2 fB
                                    1.20%    49 A               1.128  0.00     2 fB
                                    1.14%    58 A               5.575  0.00     2 fB
                                    1.03%    52 A               3.270  0.00     2 fB
      -0.05181         5 A         16.32%    33 A             -12.219  2.00     2 fB
                                   14.76%    44 A              -1.402  0.00     2 fB
                                   10.12%    41 A              -5.104  2.00     2 fB
                                    6.92%    35 A             -10.449  2.00     2 fB
                                    5.74%    39 A              -5.464  2.00     2 fB
                                    5.01%    19 A               9.586  0.00     1 fA
                                    3.72%    40 A              -5.150  2.00     2 fB
                                    3.49%    21 A               9.586  0.00     1 fA
                                    2.90%    51 A               2.876  0.00     2 fB
                                    2.85%    18 A               0.483  2.00     1 fA
                                    2.56%    29 A             -14.702  2.00     2 fB
                                    2.40%    56 A               4.908  0.00     2 fB
                                    2.32%    20 A               9.586  0.00     1 fA
                                   -1.86%    22 A              13.238  0.00     1 fA
                                    1.56%    15 A             -11.197  2.00     1 fA
                                    1.40%    53 A               3.663  0.00     2 fB
                                    1.27%    62 A               6.838  0.00     2 fB
                                    1.24%    45 A              -0.549  0.00     2 fB
                                    1.23%    59 A               5.891  0.00     2 fB
                                    1.21%    38 A              -7.907  2.00     2 fB
                                    1.12%    24 A              15.187  0.00     1 fA
                                    1.05%    55 A               4.415  0.00     2 fB
                                    1.03%    50 A               2.707  0.00     2 fB
       0.05181       319 A         17.17%    44 A              -1.402  0.00     2 fB
                                   13.50%    33 A             -12.219  2.00     2 fB
                                    9.39%    41 A              -5.104  2.00     2 fB
                                    6.26%    39 A              -5.464  2.00     2 fB
                                    4.75%    35 A             -10.449  2.00     2 fB
                                    3.50%    40 A              -5.150  2.00     2 fB
                                    3.25%    24 A              15.187  0.00     1 fA
                                    2.96%    51 A               2.876  0.00     2 fB
                                    2.93%    21 A               9.586  0.00     1 fA
                                    2.67%    29 A             -14.702  2.00     2 fB
                                    2.56%    19 A               9.586  0.00     1 fA
                                    2.35%    56 A               4.908  0.00     2 fB
                                    2.10%    54 A               3.930  0.00     2 fB
                                    1.80%    16 A               0.483  2.00     1 fA
                                    1.78%    53 A               3.663  0.00     2 fB
                                    1.54%    18 A               0.483  2.00     1 fA
                                    1.37%    61 A               6.499  0.00     2 fB
                                    1.34%    59 A               5.891  0.00     2 fB
                                    1.25%    45 A              -0.549  0.00     2 fB
                                    1.17%    50 A               2.707  0.00     2 fB
                                    1.17%    38 A              -7.907  2.00     2 fB
                                    1.04%    62 A               6.838  0.00     2 fB
 Mulliken charges used for AMS results%charges...


    =====================
     CALCULATION RESULTS
    =====================

Energy (hartree)            -0.05990240


--------------
Atomic charges
--------------
  Index   Atom    Charge
      1     Br   -0.7644
      2      C    0.5385
      3      H   -0.0997
      4     Br   -0.7737
      5      C    0.4115
      6      H   -0.1237
      7      H   -0.0999
      8      N    0.3015
      9      H   -0.0350
     10      H   -0.0947
     11      N    0.5880
     12      O   -0.4048
     13      O   -0.4435


Dipole moment vector    (Debye):    -3.67178378   -2.40914692   -2.44595004
              magnitude (Debye):     5.02679387


-----------------------
Molecular orbitals info
-----------------------
n orbitals:              323
n spin:                    1

Note: only printing virtual orbitals with
      energy smaller than HOMO + 100. eV

HOMO (eV):              -1.6938
LUMO (eV):              -0.5341
HOMO-LUMO gap (eV):      1.1597

   Index   Energy (eV)    Occupation
     218       98.2472         0.000       
     217       97.0950         0.000       
     216       96.2474         0.000       
     215       95.9209         0.000       
     214       94.9599         0.000       
     213       94.3560         0.000       
     212       93.4671         0.000       
     211       92.9020         0.000       
     210       92.1528         0.000       
     209       91.7665         0.000       
     208       90.1085         0.000       
     207       88.9803         0.000       
     206       88.7816         0.000       
     205       87.6891         0.000       
     204       85.9341         0.000       
     203       85.0869         0.000       
     202       84.7302         0.000       
     201       83.9472         0.000       
     200       83.7232         0.000       
     199       82.4265         0.000       
     198       81.8950         0.000       
     197       81.0387         0.000       
     196       80.9074         0.000       
     195       80.6858         0.000       
     194       80.4985         0.000       
     193       80.0914         0.000       
     192       79.9661         0.000       
     191       79.3583         0.000       
     190       79.0485         0.000       
     189       77.7897         0.000       
     188       77.3307         0.000       
     187       75.3243         0.000       
     186       75.1883         0.000       
     185       74.5018         0.000       
     184       72.5549         0.000       
     183       71.8284         0.000       
     182       70.7303         0.000       
     181       69.5062         0.000       
     180       66.4704         0.000       
     179       66.3466         0.000       
     178       65.1394         0.000       
     177       63.6780         0.000       
     176       63.2505         0.000       
     175       61.4756         0.000       
     174       60.1532         0.000       
     173       59.7802         0.000       
     172       59.4607         0.000       
     171       57.2376         0.000       
     170       56.1469         0.000       
     169       55.7284         0.000       
     168       53.8484         0.000       
     167       53.5582         0.000       
     166       53.0849         0.000       
     165       52.8068         0.000       
     164       51.5315         0.000       
     163       49.4005         0.000       
     162       49.0812         0.000       
     161       48.4421         0.000       
     160       47.3675         0.000       
     159       45.9059         0.000       
     158       45.2336         0.000       
     157       44.5719         0.000       
     156       43.9007         0.000       
     155       42.4837         0.000       
     154       41.5718         0.000       
     153       41.0271         0.000       
     152       40.2854         0.000       
     151       40.1566         0.000       
     150       40.0144         0.000       
     149       39.6979         0.000       
     148       39.6098         0.000       
     147       39.1900         0.000       
     146       38.7238         0.000       
     145       38.3798         0.000       
     144       37.8575         0.000       
     143       36.7430         0.000       
     142       36.3839         0.000       
     141       35.4829         0.000       
     140       34.9467         0.000       
     139       34.5902         0.000       
     138       34.1076         0.000       
     137       33.8001         0.000       
     136       33.1751         0.000       
     135       32.3826         0.000       
     134       32.2591         0.000       
     133       31.7479         0.000       
     132       31.5613         0.000       
     131       31.2912         0.000       
     130       30.4193         0.000       
     129       29.9441         0.000       
     128       29.8978         0.000       
     127       29.5106         0.000       
     126       29.3438         0.000       
     125       29.0946         0.000       
     124       28.9139         0.000       
     123       28.8027         0.000       
     122       28.7479         0.000       
     121       28.3260         0.000       
     120       27.8777         0.000       
     119       27.3225         0.000       
     118       26.8455         0.000       
     117       26.6269         0.000       
     116       25.8667         0.000       
     115       24.3186         0.000       
     114       24.1704         0.000       
     113       23.0479         0.000       
     112       22.5715         0.000       
     111       22.5184         0.000       
     110       22.3196         0.000       
     109       20.3735         0.000       
     108       20.3016         0.000       
     107       18.2841         0.000       
     106       17.7422         0.000       
     105       17.2660         0.000       
     104       17.0664         0.000       
     103       16.3674         0.000       
     102       16.0194         0.000       
     101       15.2692         0.000       
     100       15.0231         0.000       
      99       14.9073         0.000       
      98       14.7159         0.000       
      97       14.3598         0.000       
      96       13.8191         0.000       
      95       13.7234         0.000       
      94       13.3303         0.000       
      93       13.2644         0.000       
      92       13.1264         0.000       
      91       12.8778         0.000       
      90       12.3617         0.000       
      89       12.1813         0.000       
      88       11.9786         0.000       
      87       11.8331         0.000       
      86       11.4127         0.000       
      85       11.3168         0.000       
      84       10.9136         0.000       
      83       10.4932         0.000       
      82       10.3847         0.000       
      81        9.4884         0.000       
      80        9.2816         0.000       
      79        9.1611         0.000       
      78        9.1198         0.000       
      77        8.9378         0.000       
      76        8.5887         0.000       
      75        8.3753         0.000       
      74        8.2682         0.000       
      73        7.4797         0.000       
      72        7.3269         0.000       
      71        7.0280         0.000       
      70        6.9504         0.000       
      69        6.5037         0.000       
      68        6.2330         0.000       
      67        4.7780         0.000       
      66        4.7102         0.000       
      65        4.3892         0.000       
      64        3.4813         0.000       
      63        3.3181         0.000       
      62        2.2342         0.000       
      61        0.6118         0.000       
      60       -0.5341         0.000 < LUMO
      59       -1.6938         2.000 < HOMO
      58       -1.7321         2.000       
      57       -1.7652         2.000       
      56       -1.8167         2.000       
      55       -1.8975         2.000       
      54       -2.0190         2.000       
      53       -4.4745         2.000       
      52       -4.8394         2.000       
      51       -5.2894         2.000       
      50       -6.3939         2.000       
      49       -7.7035         2.000       
      48       -8.3041         2.000       
      47       -9.0775         2.000       
      46      -10.2308         2.000       
      45      -10.8935         2.000       
      44      -11.0480         2.000       
      43      -11.8916         2.000       
      42      -12.7660         2.000       
      41      -13.5373         2.000       
      40      -13.6533         2.000       
      39      -14.6070         2.000       
      38      -17.9547         2.000       
      37      -21.7105         2.000       
      36      -24.0071         2.000       
      35      -28.4042         2.000       
      34      -59.8149         2.000       
      33      -59.8153         2.000       
      32      -59.8464         2.000       
      31      -59.8532         2.000       
      30      -59.8615         2.000       
      29      -59.8847         2.000       
      28      -59.8851         2.000       
      27      -59.9193         2.000       
      26      -59.9264         2.000       
      25      -59.9356         2.000       
      24     -166.3420         2.000       
      23     -166.3508         2.000       
      22     -166.3922         2.000       
      21     -166.4123         2.000       
      20     -166.4216         2.000       
      19     -166.4670         2.000       
      18     -230.1331         2.000       
      17     -230.2050         2.000       
      16     -269.0521         2.000       
      15     -269.9001         2.000       
      14     -380.3990         2.000       
      13     -385.2211         2.000       
      12     -509.9423         2.000       
      11     -510.0593         2.000       
      10    -1520.4137         2.000       
       9    -1520.4167         2.000       
       8    -1520.4296         2.000       
       7    -1520.4847         2.000       
       6    -1520.4878         2.000       
       5    -1520.5022         2.000       
       4    -1723.5082         2.000       
       3    -1723.5798         2.000       
       2   -13290.0697         2.000       
       1   -13290.1403         2.000       

AMS application finished. Exiting.
NORMAL TERMINATION
     Total cpu time:      83.23
  Total system time:       0.36
 Total elapsed time:      83.86
NORMAL TERMINATION
