
 *******************************************************************************
 *                                                                             *
 *  --------------------------------                                           *
 *   Amsterdam Modeling Suite (AMS)              2026.103                      *
 *  --------------------------------                                           *
 *                                               r260501 2026-05-01 873454b5   *
 *                                                                             *
 *                                                                             *
 *                              =================                              *
 *                              |               |                              *
 *                              |     A M S     |                              *
 *                              |               |                              *
 *                              =================                              *
 *                                                                             *
 *                                                                             *
 *   Online information and documentation:  https://www.scm.com/support/       *
 *   E-mail:  support@scm.com   info@scm.com                                   *
 *                                                                             *
 *   Scientific publications using AMS results must be properly referenced     *
 *   See the User Manuals (or the web site) for recommended citations          *
 *   The terms and conditions of the End User License Agreement apply to       *
 *   the use of AMS, https://www.scm.com/license-terms/                        *
 *                                                                             *
 **********************  x86_64_linux_intel / intelmpi  ************************
 
 Licensed to: Jong-June Jeon / University of Seoul 2026-06-02 13:44:15
 SCM User ID: u30731
  
 AMS 2026.103  RunTime: Jun04-2026 00:10:07  ShM Nodes: 1  Procs: 1

 AMS jobname: c2_fragB_ts
 AMS jobid  : 1814571718

 Start   directory: /gpfs/home1/yeseo1ee/projects/eda-asm-prediction/ADF_800/adf_outputs/batch_007/qmrxn20_sn2_C_E_A_D_A_A/
 Results directory: /gpfs/home1/yeseo1ee/projects/eda-asm-prediction/ADF_800/adf_outputs/batch_007/qmrxn20_sn2_C_E_A_D_A_A/c2_fragB_ts.results/
 Scratch directory: /tmp/amstmp_c2_fragB_ts_kid0.1814571718/

 RNG seed: -677407103 -1065629583 1043223914 -184487670 -1933192091 990461843 -945564012 -2120165660



                      ************************************************************************
                      *  ADF 2026.103  RunTime: Jun04-2026 00:10:07  ShM Nodes: 1  Procs: 1  *
                      ************************************************************************
  

       ****************************
       * SINGLE POINT CALCULATION *
       ****************************

--------
Geometry
--------
Formula: C4H7FN2
Atoms
  Index Symbol   x (angstrom)   y (angstrom)   z (angstrom)
      1      C     0.48815782    -0.03909283     0.06760409
      2      H     1.55489161     1.80263014     0.35452202
      3      F    -1.15450496    -0.14354275     0.36225317
      4      C     0.56454314     1.47979879     0.04351221
      5      H    -0.15942445     1.81118326     0.79371718
      6      C     0.47127900    -0.78780049    -1.17214155
      7      N     0.25955357    -1.44032313    -2.13543509
      8      N     0.86922715    -0.70122243     1.30181355
      9      H     1.75780285    -1.15151937     1.14404207
     10      H     0.14600554    -1.38823586     1.48143677
     11      C     0.21063301     2.04621794    -1.32195809
     12      H     0.93777895     1.71135939    -2.06634392
     13      H    -0.77919837     1.69828538    -1.62364343
     14      H     0.20753895     3.14132465    -1.30672235

Total System Charge              0.00000


----------------
ADF Engine Input
----------------
 
   Basis
     Type TZ2P
     Core None
   End
   XC
     GGA BLYP
     Dispersion GRIMME3 BJDAMP
   End
   Symmetry NOSYM
   NumericalQuality Normal
   Unrestricted No
   SCF
     Iterations 200
     Converge 1.0e-6
   End
   Save TAPE21
 

 Title: *** (NO TITLE) ***

 *** adf ***



 ===========================
 A T T A C H E D   F I L E S
 ===========================
  



 ===============================
 M O D E L   P A R A M E T E R S
 ===============================
  
 DENSITY FUNCTIONAL POTENTIAL (scf)
    LDA:                               Exchange only                           == Not Default ==
    Gradient Corrections:              Becke88 LYP                             == Not Default ==

 SPIN  (restricted / unrestr.)
    Molecule:                          Restricted                               
    Fragments:                         Restricted                               

 OTHER ASPECTS
    Relativistic Corrections:          scalar (ZORA,MAPA)                       

    Nuclear Charge Density Model:      Point Charge Nuclei                      
    Core Treatment:                    Frozen Orbital(s)                        

    Hyperfine or Zeeman Interaction:   ---                                      

 Settings for Grimme D3 dispersion correction

      damping                        BJ
      s6                          1.000
      s8                          2.700
      a1                          0.430
      a2                          4.236

 Other (technical) parameters

      alpha                      14.000
      version                         4
 


 Fragment File(s)
 ----------------
 C:
         file : /gpfs/home1/yeseo1ee/projects/eda-asm-prediction/ADF_800/adf_outputs/batch_007/qmrxn20_sn2_C_E_A_D_A_A/c2_fragB_ts.results/t21.50BA88D5.C
         jobid: 0
         title: Carbon (TZ2P)
 H:
         file : /gpfs/home1/yeseo1ee/projects/eda-asm-prediction/ADF_800/adf_outputs/batch_007/qmrxn20_sn2_C_E_A_D_A_A/c2_fragB_ts.results/t21.6F35CCAB.H
         jobid: 0
         title: Hydrogen (TZ2P)
 F:
         file : /gpfs/home1/yeseo1ee/projects/eda-asm-prediction/ADF_800/adf_outputs/batch_007/qmrxn20_sn2_C_E_A_D_A_A/c2_fragB_ts.results/t21.CCE1280.F
         jobid: 0
         title: Fluorine (TZ2P)
 N:
         file : /gpfs/home1/yeseo1ee/projects/eda-asm-prediction/ADF_800/adf_outputs/batch_007/qmrxn20_sn2_C_E_A_D_A_A/c2_fragB_ts.results/t21.44EAA48D.N
         jobid: 0
         title: Nitrogen (TZ2P)



 ===============
 G E O M E T R Y  ***  3D  Molecule  ***
 ===============
  

 ATOMS
 =====                            X Y Z                    CHARGE
                                (Angstrom)             Nucl     +Core       At.Mass
                       --------------------------    ----------------       -------
    1  C               0.4882   -0.0391    0.0676      6.00      6.00       12.0000
    2  H               1.5549    1.8026    0.3545      1.00      1.00        1.0078
    3  F              -1.1545   -0.1435    0.3623      9.00      9.00       18.9984
    4  C               0.5645    1.4798    0.0435      6.00      6.00       12.0000
    5  H              -0.1594    1.8112    0.7937      1.00      1.00        1.0078
    6  C               0.4713   -0.7878   -1.1721      6.00      6.00       12.0000
    7  N               0.2596   -1.4403   -2.1354      7.00      7.00       14.0031
    8  N               0.8692   -0.7012    1.3018      7.00      7.00       14.0031
    9  H               1.7578   -1.1515    1.1440      1.00      1.00        1.0078
   10  H               0.1460   -1.3882    1.4814      1.00      1.00        1.0078
   11  C               0.2106    2.0462   -1.3220      6.00      6.00       12.0000
   12  H               0.9378    1.7114   -2.0663      1.00      1.00        1.0078
   13  H              -0.7792    1.6983   -1.6236      1.00      1.00        1.0078
   14  H               0.2075    3.1413   -1.3067      1.00      1.00        1.0078


 FRAGMENTS
 =========                                     Atoms in this Fragment     Cart. coord.s (Angstrom)
                                               -------------------------------------------------------
    1  C                                                 1  C            0.4882   -0.0391    0.0676
    2  C                                                 4  C            0.5645    1.4798    0.0435
    3  C                                                 6  C            0.4713   -0.7878   -1.1721
    4  C                                                11  C            0.2106    2.0462   -1.3220
    5  H                                                 2  H            1.5549    1.8026    0.3545
    6  H                                                 5  H           -0.1594    1.8112    0.7937
    7  H                                                 9  H            1.7578   -1.1515    1.1440
    8  H                                                10  H            0.1460   -1.3882    1.4814
    9  H                                                12  H            0.9378    1.7114   -2.0663
   10  H                                                13  H           -0.7792    1.6983   -1.6236
   11  H                                                14  H            0.2075    3.1413   -1.3067
   12  F                                                 3  F           -1.1545   -0.1435    0.3623
   13  N                                                 7  N            0.2596   -1.4403   -2.1354
   14  N                                                 8  N            0.8692   -0.7012    1.3018


 Interatomic Distance Matrix (Angstrom)
 --------------------------------------

   1)     0.000
   2)     2.148   0.000
   3)     1.672   3.336   0.000
   4)     1.521   1.087   2.386   0.000
   5)     2.090   1.770   2.235   1.094   0.000
   6)     1.448   3.196   2.327   2.575   3.319   0.000
   7)     2.621   4.289   3.150   3.656   4.396   1.183   0.000
   8)     1.452   2.763   2.300   2.536   2.762   2.507   3.568   0.000
   9)     2.002   3.065   3.179   3.092   3.546   2.674   3.617   1.009   0.000
  10)     1.984   3.666   2.120   3.235   3.287   2.740   3.619   1.014   1.664   0.000
  11)     2.521   2.163   3.081   1.520   2.161   2.850   3.581   3.856   4.324   4.434
          0.000
  12)     2.796   2.500   3.704   2.155   3.065   2.695   3.225   4.144   4.379   4.777
          1.093   0.000
  13)     2.736   3.061   2.734   2.152   2.498   2.819   3.345   4.127   4.714   4.475
          1.092   1.773   0.000
  14)     3.476   2.523   3.928   2.171   2.513   3.940   4.656   4.691   5.181   5.319
          1.095   1.776   1.777   0.000

 Min. Distance =    1.0086
 Max. Distance =    5.3193



 =====================================
 S Y M M E T R Y ,   E L E C T R O N S
 =====================================
  
 Symmetry: NOSYM

 Irreducible Representations, including subspecies
 -------------------------------------------------
 A


 Configuration of Valence Electrons
 ==================================
 ( determined in the SCF procedure )

 Total:   54

 Net Charge: 0 (Nuclei minus Electrons)

 Aufbau principle for MO occupations will be applied through SCF cycle no.     100
 Thereafter, the program will assign electrons to MOs that are spatially
 similar to the occupied MOs in a "reference" cycle ("KeepOrbitals").
 The reference cycle is always the PREVIOUS cycle: it will evolve with
 the SCF procedure.
 ***************************************************************************************************



                                      ****************************************
                                      *  B U I L D : (Fragments, Functions)  *
                                      ****************************************
  



 =======
 S F O s  ***  (Symmetrized Fragment Orbitals)  ***
 =======
  
 SFOs are linear combinations of (valence) Fragment Orbitals (FOs), such that the SFOs transform as the
 irreducible representations of the (molecular) symmetry group. Each SFO is therefore characterized by
 an irrep of the molecule and by a few (or only one) generating FOs.
 The SFOs constitute a symmetry-adapted basis for the Fock matrix. The MO eigenvector coefficients in
 this basis provide a direct interpretation of the MOs in terms of Frontier Orbital Theory.

 The SFOs are combined with auxiliary Core Functions (CFs) to ensure orthogonalization on the (frozen)
 Core Orbitals (COs). The Core-orthogonalized SFOs (CSFOs) constitute the true Fock basis.

 The FOs, and hence also the (C)SFOs are combinations of the elementary basis functions (BAS). The basis
 functions that participate in the description of the SFOs depend on the irrep. The indices of the
 involved functions are printed below for each irrep.
 (The complete list of primitive basis functions is printed in another section)

 Total nr. of (C)SFOs (summation over all irreps) :   259

 NOTE: a (C)SFO that is defined as a combination of more than one FO is usually NOT normalized.



                                       === A ===
 Nr. of SFOs :  259
 Cartesian basis functions that participate in this irrep (total number =   294) :
      1     2     3     4     5     6     9    12     7    10
     13     8    11    14    15    16    17    18    19    20
     21    22    23    24    25    26    27    28    29    30
     31    32    33    34    35    36    39    42    37    40
     43    38    41    44    45    46    47    48    49    50
     51    52    53    54    55    56    57    58    59    60
     61    62    63    64    65    66    69    72    67    70
     73    68    71    74    75    76    77    78    79    80
     81    82    83    84    85    86    87    88    89    90
     91    92    93    94    95    96    99   102    97   100
    103    98   101   104   105   106   107   108   109   110
    111   112   113   114   115   116   117   118   119   120
    121   122   123   124   125   126   127   128   129   130
    131   132   133   134   135   136   137   138   139   140
    141   142   143   144   145   146   147   148   149   150
    151   152   153   154   155   156   157   158   159   160
    161   162   163   164   165   166   167   168   169   170
    171   172   173   174   175   176   177   178   179   180
    181   182   183   184   185   186   187   188   189   190
    191   192   193   194   195   196   197   198   199   200
    201   202   203   204   205   206   207   208   209   210
    213   216   211   214   217   212   215   218   219   220
    221   222   223   224   225   226   227   228   229   230
    231   232   233   234   235   236   237   238   239   240
    243   246   241   244   247   242   245   248   249   250
    251   252   253   254   255   256   257   258   259   260
    261   262   263   264   265   266   267   268   269   270
    273   276   271   274   277   272   275   278   279   280
    281   282   283   284   285   286   287   288   289   290
    291   292   293   294

    SFO  (index         Fragment          Generating    Expansion in Fragment Orbitals
  indx  incl.CFs)   Occup   Orb.Energy   FragmentType  Coeff.   Orbital     on Fragment
 --------------------------------------------------------------------------------------
     1       1      2.000     -10.066 au  C             1.00      1 S               1
                        (    -273.921 eV)
     2       2      2.000      -0.501 au  C             1.00      2 S               1
                        (     -13.620 eV)
     3       3       --         0.373 au  C             1.00      3 S               1
                        (      10.158 eV)
     4       4       --         5.405 au  C             1.00      4 S               1
                        (     147.073 eV)
     5       5       --        49.848 au  C             1.00      5 S               1
                        (    1356.422 eV)
     6       6      0.667      -0.193 au  C             1.00      1 P:x             1
                        (      -5.239 eV)
     7       7       --         0.169 au  C             1.00      2 P:x             1
                        (       4.589 eV)
     8       8       --         2.013 au  C             1.00      3 P:x             1
                        (      54.789 eV)
     9       9      0.667      -0.193 au  C             1.00      1 P:y             1
                        (      -5.239 eV)
    10      10       --         0.169 au  C             1.00      2 P:y             1
                        (       4.589 eV)
    11      11       --         2.013 au  C             1.00      3 P:y             1
                        (      54.789 eV)
    12      12      0.667      -0.193 au  C             1.00      1 P:z             1
                        (      -5.239 eV)
    13      13       --         0.169 au  C             1.00      2 P:z             1
                        (       4.589 eV)
    14      14       --         2.013 au  C             1.00      3 P:z             1
                        (      54.789 eV)
    15      15       --         1.243 au  C             1.00      1 D:z2            1
                        (      33.824 eV)
    16      16       --         1.243 au  C             1.00      1 D:x2-y2         1
                        (      33.824 eV)
    17      17       --         1.243 au  C             1.00      1 D:xy            1
                        (      33.824 eV)
    18      18       --         1.243 au  C             1.00      1 D:xz            1
                        (      33.824 eV)
    19      19       --         1.243 au  C             1.00      1 D:yz            1
                        (      33.824 eV)
    20      20       --         4.016 au  C             1.00      1 F:z3            1
                        (     109.271 eV)
    21      21       --         4.016 au  C             1.00      1 F:z             1
                        (     109.271 eV)
    22      22       --         4.016 au  C             1.00      1 F:xyz           1
                        (     109.271 eV)
    23      23       --         4.016 au  C             1.00      1 F:z2x           1
                        (     109.271 eV)
    24      24       --         4.016 au  C             1.00      1 F:z2y           1
                        (     109.271 eV)
    25      25       --         4.016 au  C             1.00      1 F:x             1
                        (     109.271 eV)
    26      26       --         4.016 au  C             1.00      1 F:y             1
                        (     109.271 eV)
    27      27      2.000     -10.066 au  C             1.00      1 S               2
                        (    -273.921 eV)
    28      28      2.000      -0.501 au  C             1.00      2 S               2
                        (     -13.620 eV)
    29      29       --         0.373 au  C             1.00      3 S               2
                        (      10.158 eV)
    30      30       --         5.405 au  C             1.00      4 S               2
                        (     147.073 eV)
    31      31       --        49.848 au  C             1.00      5 S               2
                        (    1356.422 eV)
    32      32      0.667      -0.193 au  C             1.00      1 P:x             2
                        (      -5.239 eV)
    33      33       --         0.169 au  C             1.00      2 P:x             2
                        (       4.589 eV)
    34      34       --         2.013 au  C             1.00      3 P:x             2
                        (      54.789 eV)
    35      35      0.667      -0.193 au  C             1.00      1 P:y             2
                        (      -5.239 eV)
    36      36       --         0.169 au  C             1.00      2 P:y             2
                        (       4.589 eV)
    37      37       --         2.013 au  C             1.00      3 P:y             2
                        (      54.789 eV)
    38      38      0.667      -0.193 au  C             1.00      1 P:z             2
                        (      -5.239 eV)
    39      39       --         0.169 au  C             1.00      2 P:z             2
                        (       4.589 eV)
    40      40       --         2.013 au  C             1.00      3 P:z             2
                        (      54.789 eV)
    41      41       --         1.243 au  C             1.00      1 D:z2            2
                        (      33.824 eV)
    42      42       --         1.243 au  C             1.00      1 D:x2-y2         2
                        (      33.824 eV)
    43      43       --         1.243 au  C             1.00      1 D:xy            2
                        (      33.824 eV)
    44      44       --         1.243 au  C             1.00      1 D:xz            2
                        (      33.824 eV)
    45      45       --         1.243 au  C             1.00      1 D:yz            2
                        (      33.824 eV)
    46      46       --         4.016 au  C             1.00      1 F:z3            2
                        (     109.271 eV)
    47      47       --         4.016 au  C             1.00      1 F:z             2
                        (     109.271 eV)
    48      48       --         4.016 au  C             1.00      1 F:xyz           2
                        (     109.271 eV)
    49      49       --         4.016 au  C             1.00      1 F:z2x           2
                        (     109.271 eV)
    50      50       --         4.016 au  C             1.00      1 F:z2y           2
                        (     109.271 eV)
    51      51       --         4.016 au  C             1.00      1 F:x             2
                        (     109.271 eV)
    52      52       --         4.016 au  C             1.00      1 F:y             2
                        (     109.271 eV)
    53      53      2.000     -10.066 au  C             1.00      1 S               3
                        (    -273.921 eV)
    54      54      2.000      -0.501 au  C             1.00      2 S               3
                        (     -13.620 eV)
    55      55       --         0.373 au  C             1.00      3 S               3
                        (      10.158 eV)
    56      56       --         5.405 au  C             1.00      4 S               3
                        (     147.073 eV)
    57      57       --        49.848 au  C             1.00      5 S               3
                        (    1356.422 eV)
    58      58      0.667      -0.193 au  C             1.00      1 P:x             3
                        (      -5.239 eV)
    59      59       --         0.169 au  C             1.00      2 P:x             3
                        (       4.589 eV)
    60      60       --         2.013 au  C             1.00      3 P:x             3
                        (      54.789 eV)
    61      61      0.667      -0.193 au  C             1.00      1 P:y             3
                        (      -5.239 eV)
    62      62       --         0.169 au  C             1.00      2 P:y             3
                        (       4.589 eV)
    63      63       --         2.013 au  C             1.00      3 P:y             3
                        (      54.789 eV)
    64      64      0.667      -0.193 au  C             1.00      1 P:z             3
                        (      -5.239 eV)
    65      65       --         0.169 au  C             1.00      2 P:z             3
                        (       4.589 eV)
    66      66       --         2.013 au  C             1.00      3 P:z             3
                        (      54.789 eV)
    67      67       --         1.243 au  C             1.00      1 D:z2            3
                        (      33.824 eV)
    68      68       --         1.243 au  C             1.00      1 D:x2-y2         3
                        (      33.824 eV)
    69      69       --         1.243 au  C             1.00      1 D:xy            3
                        (      33.824 eV)
    70      70       --         1.243 au  C             1.00      1 D:xz            3
                        (      33.824 eV)
    71      71       --         1.243 au  C             1.00      1 D:yz            3
                        (      33.824 eV)
    72      72       --         4.016 au  C             1.00      1 F:z3            3
                        (     109.271 eV)
    73      73       --         4.016 au  C             1.00      1 F:z             3
                        (     109.271 eV)
    74      74       --         4.016 au  C             1.00      1 F:xyz           3
                        (     109.271 eV)
    75      75       --         4.016 au  C             1.00      1 F:z2x           3
                        (     109.271 eV)
    76      76       --         4.016 au  C             1.00      1 F:z2y           3
                        (     109.271 eV)
    77      77       --         4.016 au  C             1.00      1 F:x             3
                        (     109.271 eV)
    78      78       --         4.016 au  C             1.00      1 F:y             3
                        (     109.271 eV)
    79      79      2.000     -10.066 au  C             1.00      1 S               4
                        (    -273.921 eV)
    80      80      2.000      -0.501 au  C             1.00      2 S               4
                        (     -13.620 eV)
    81      81       --         0.373 au  C             1.00      3 S               4
                        (      10.158 eV)
    82      82       --         5.405 au  C             1.00      4 S               4
                        (     147.073 eV)
    83      83       --        49.848 au  C             1.00      5 S               4
                        (    1356.422 eV)
    84      84      0.667      -0.193 au  C             1.00      1 P:x             4
                        (      -5.239 eV)
    85      85       --         0.169 au  C             1.00      2 P:x             4
                        (       4.589 eV)
    86      86       --         2.013 au  C             1.00      3 P:x             4
                        (      54.789 eV)
    87      87      0.667      -0.193 au  C             1.00      1 P:y             4
                        (      -5.239 eV)
    88      88       --         0.169 au  C             1.00      2 P:y             4
                        (       4.589 eV)
    89      89       --         2.013 au  C             1.00      3 P:y             4
                        (      54.789 eV)
    90      90      0.667      -0.193 au  C             1.00      1 P:z             4
                        (      -5.239 eV)
    91      91       --         0.169 au  C             1.00      2 P:z             4
                        (       4.589 eV)
    92      92       --         2.013 au  C             1.00      3 P:z             4
                        (      54.789 eV)
    93      93       --         1.243 au  C             1.00      1 D:z2            4
                        (      33.824 eV)
    94      94       --         1.243 au  C             1.00      1 D:x2-y2         4
                        (      33.824 eV)
    95      95       --         1.243 au  C             1.00      1 D:xy            4
                        (      33.824 eV)
    96      96       --         1.243 au  C             1.00      1 D:xz            4
                        (      33.824 eV)
    97      97       --         1.243 au  C             1.00      1 D:yz            4
                        (      33.824 eV)
    98      98       --         4.016 au  C             1.00      1 F:z3            4
                        (     109.271 eV)
    99      99       --         4.016 au  C             1.00      1 F:z             4
                        (     109.271 eV)
   100     100       --         4.016 au  C             1.00      1 F:xyz           4
                        (     109.271 eV)
   101     101       --         4.016 au  C             1.00      1 F:z2x           4
                        (     109.271 eV)
   102     102       --         4.016 au  C             1.00      1 F:z2y           4
                        (     109.271 eV)
   103     103       --         4.016 au  C             1.00      1 F:x             4
                        (     109.271 eV)
   104     104       --         4.016 au  C             1.00      1 F:y             4
                        (     109.271 eV)
   105     105      1.000      -0.240 au  H             1.00      1 S               5
                        (      -6.532 eV)
   106     106       --         0.088 au  H             1.00      2 S               5
                        (       2.394 eV)
   107     107       --         1.502 au  H             1.00      3 S               5
                        (      40.869 eV)
   108     108       --         0.406 au  H             1.00      1 P:x             5
                        (      11.051 eV)
   109     109       --         0.406 au  H             1.00      1 P:y             5
                        (      11.051 eV)
   110     110       --         0.406 au  H             1.00      1 P:z             5
                        (      11.051 eV)
   111     111       --         2.569 au  H             1.00      1 D:z2            5
                        (      69.917 eV)
   112     112       --         2.569 au  H             1.00      1 D:x2-y2         5
                        (      69.917 eV)
   113     113       --         2.569 au  H             1.00      1 D:xy            5
                        (      69.917 eV)
   114     114       --         2.569 au  H             1.00      1 D:xz            5
                        (      69.917 eV)
   115     115       --         2.569 au  H             1.00      1 D:yz            5
                        (      69.917 eV)
   116     116      1.000      -0.240 au  H             1.00      1 S               6
                        (      -6.532 eV)
   117     117       --         0.088 au  H             1.00      2 S               6
                        (       2.394 eV)
   118     118       --         1.502 au  H             1.00      3 S               6
                        (      40.869 eV)
   119     119       --         0.406 au  H             1.00      1 P:x             6
                        (      11.051 eV)
   120     120       --         0.406 au  H             1.00      1 P:y             6
                        (      11.051 eV)
   121     121       --         0.406 au  H             1.00      1 P:z             6
                        (      11.051 eV)
   122     122       --         2.569 au  H             1.00      1 D:z2            6
                        (      69.917 eV)
   123     123       --         2.569 au  H             1.00      1 D:x2-y2         6
                        (      69.917 eV)
   124     124       --         2.569 au  H             1.00      1 D:xy            6
                        (      69.917 eV)
   125     125       --         2.569 au  H             1.00      1 D:xz            6
                        (      69.917 eV)
   126     126       --         2.569 au  H             1.00      1 D:yz            6
                        (      69.917 eV)
   127     127      1.000      -0.240 au  H             1.00      1 S               7
                        (      -6.532 eV)
   128     128       --         0.088 au  H             1.00      2 S               7
                        (       2.394 eV)
   129     129       --         1.502 au  H             1.00      3 S               7
                        (      40.869 eV)
   130     130       --         0.406 au  H             1.00      1 P:x             7
                        (      11.051 eV)
   131     131       --         0.406 au  H             1.00      1 P:y             7
                        (      11.051 eV)
   132     132       --         0.406 au  H             1.00      1 P:z             7
                        (      11.051 eV)
   133     133       --         2.569 au  H             1.00      1 D:z2            7
                        (      69.917 eV)
   134     134       --         2.569 au  H             1.00      1 D:x2-y2         7
                        (      69.917 eV)
   135     135       --         2.569 au  H             1.00      1 D:xy            7
                        (      69.917 eV)
   136     136       --         2.569 au  H             1.00      1 D:xz            7
                        (      69.917 eV)
   137     137       --         2.569 au  H             1.00      1 D:yz            7
                        (      69.917 eV)
   138     138      1.000      -0.240 au  H             1.00      1 S               8
                        (      -6.532 eV)
   139     139       --         0.088 au  H             1.00      2 S               8
                        (       2.394 eV)
   140     140       --         1.502 au  H             1.00      3 S               8
                        (      40.869 eV)
   141     141       --         0.406 au  H             1.00      1 P:x             8
                        (      11.051 eV)
   142     142       --         0.406 au  H             1.00      1 P:y             8
                        (      11.051 eV)
   143     143       --         0.406 au  H             1.00      1 P:z             8
                        (      11.051 eV)
   144     144       --         2.569 au  H             1.00      1 D:z2            8
                        (      69.917 eV)
   145     145       --         2.569 au  H             1.00      1 D:x2-y2         8
                        (      69.917 eV)
   146     146       --         2.569 au  H             1.00      1 D:xy            8
                        (      69.917 eV)
   147     147       --         2.569 au  H             1.00      1 D:xz            8
                        (      69.917 eV)
   148     148       --         2.569 au  H             1.00      1 D:yz            8
                        (      69.917 eV)
   149     149      1.000      -0.240 au  H             1.00      1 S               9
                        (      -6.532 eV)
   150     150       --         0.088 au  H             1.00      2 S               9
                        (       2.394 eV)
   151     151       --         1.502 au  H             1.00      3 S               9
                        (      40.869 eV)
   152     152       --         0.406 au  H             1.00      1 P:x             9
                        (      11.051 eV)
   153     153       --         0.406 au  H             1.00      1 P:y             9
                        (      11.051 eV)
   154     154       --         0.406 au  H             1.00      1 P:z             9
                        (      11.051 eV)
   155     155       --         2.569 au  H             1.00      1 D:z2            9
                        (      69.917 eV)
   156     156       --         2.569 au  H             1.00      1 D:x2-y2         9
                        (      69.917 eV)
   157     157       --         2.569 au  H             1.00      1 D:xy            9
                        (      69.917 eV)
   158     158       --         2.569 au  H             1.00      1 D:xz            9
                        (      69.917 eV)
   159     159       --         2.569 au  H             1.00      1 D:yz            9
                        (      69.917 eV)
   160     160      1.000      -0.240 au  H             1.00      1 S              10
                        (      -6.532 eV)
   161     161       --         0.088 au  H             1.00      2 S              10
                        (       2.394 eV)
   162     162       --         1.502 au  H             1.00      3 S              10
                        (      40.869 eV)
   163     163       --         0.406 au  H             1.00      1 P:x            10
                        (      11.051 eV)
   164     164       --         0.406 au  H             1.00      1 P:y            10
                        (      11.051 eV)
   165     165       --         0.406 au  H             1.00      1 P:z            10
                        (      11.051 eV)
   166     166       --         2.569 au  H             1.00      1 D:z2           10
                        (      69.917 eV)
   167     167       --         2.569 au  H             1.00      1 D:x2-y2        10
                        (      69.917 eV)
   168     168       --         2.569 au  H             1.00      1 D:xy           10
                        (      69.917 eV)
   169     169       --         2.569 au  H             1.00      1 D:xz           10
                        (      69.917 eV)
   170     170       --         2.569 au  H             1.00      1 D:yz           10
                        (      69.917 eV)
   171     171      1.000      -0.240 au  H             1.00      1 S              11
                        (      -6.532 eV)
   172     172       --         0.088 au  H             1.00      2 S              11
                        (       2.394 eV)
   173     173       --         1.502 au  H             1.00      3 S              11
                        (      40.869 eV)
   174     174       --         0.406 au  H             1.00      1 P:x            11
                        (      11.051 eV)
   175     175       --         0.406 au  H             1.00      1 P:y            11
                        (      11.051 eV)
   176     176       --         0.406 au  H             1.00      1 P:z            11
                        (      11.051 eV)
   177     177       --         2.569 au  H             1.00      1 D:z2           11
                        (      69.917 eV)
   178     178       --         2.569 au  H             1.00      1 D:x2-y2        11
                        (      69.917 eV)
   179     179       --         2.569 au  H             1.00      1 D:xy           11
                        (      69.917 eV)
   180     180       --         2.569 au  H             1.00      1 D:xz           11
                        (      69.917 eV)
   181     181       --         2.569 au  H             1.00      1 D:yz           11
                        (      69.917 eV)
   182     182      2.000     -24.402 au  F             1.00      1 S              12
                        (    -664.014 eV)
   183     183      2.000      -1.095 au  F             1.00      2 S              12
                        (     -29.785 eV)
   184     184       --         0.023 au  F             1.00      3 S              12
                        (       0.624 eV)
   185     185       --         1.576 au  F             1.00      4 S              12
                        (      42.880 eV)
   186     186       --        47.803 au  F             1.00      5 S              12
                        (    1300.785 eV)
   187     187      1.667      -0.409 au  F             1.00      1 P:x            12
                        (     -11.127 eV)
   188     188       --         0.428 au  F             1.00      2 P:x            12
                        (      11.654 eV)
   189     189       --         4.556 au  F             1.00      3 P:x            12
                        (     123.977 eV)
   190     190      1.667      -0.409 au  F             1.00      1 P:y            12
                        (     -11.127 eV)
   191     191       --         0.428 au  F             1.00      2 P:y            12
                        (      11.654 eV)
   192     192       --         4.556 au  F             1.00      3 P:y            12
                        (     123.977 eV)
   193     193      1.667      -0.409 au  F             1.00      1 P:z            12
                        (     -11.127 eV)
   194     194       --         0.428 au  F             1.00      2 P:z            12
                        (      11.654 eV)
   195     195       --         4.556 au  F             1.00      3 P:z            12
                        (     123.977 eV)
   196     196       --         1.117 au  F             1.00      1 D:z2           12
                        (      30.390 eV)
   197     197       --         1.117 au  F             1.00      1 D:x2-y2        12
                        (      30.390 eV)
   198     198       --         1.117 au  F             1.00      1 D:xy           12
                        (      30.390 eV)
   199     199       --         1.117 au  F             1.00      1 D:xz           12
                        (      30.390 eV)
   200     200       --         1.117 au  F             1.00      1 D:yz           12
                        (      30.390 eV)
   201     201       --         3.416 au  F             1.00      1 F:z3           12
                        (      92.949 eV)
   202     202       --         3.416 au  F             1.00      1 F:z            12
                        (      92.949 eV)
   203     203       --         3.416 au  F             1.00      1 F:xyz          12
                        (      92.949 eV)
   204     204       --         3.416 au  F             1.00      1 F:z2x          12
                        (      92.949 eV)
   205     205       --         3.416 au  F             1.00      1 F:z2y          12
                        (      92.949 eV)
   206     206       --         3.416 au  F             1.00      1 F:x            12
                        (      92.949 eV)
   207     207       --         3.416 au  F             1.00      1 F:y            12
                        (      92.949 eV)
   208     208      2.000     -14.160 au  N             1.00      1 S              13
                        (    -385.319 eV)
   209     209      2.000      -0.678 au  N             1.00      2 S              13
                        (     -18.450 eV)
   210     210       --         0.517 au  N             1.00      3 S              13
                        (      14.073 eV)
   211     211       --         6.872 au  N             1.00      4 S              13
                        (     186.990 eV)
   212     212       --        63.432 au  N             1.00      5 S              13
                        (    1726.082 eV)
   213     213      1.000      -0.260 au  N             1.00      1 P:x            13
                        (      -7.062 eV)
   214     214       --         0.281 au  N             1.00      2 P:x            13
                        (       7.649 eV)
   215     215       --         3.275 au  N             1.00      3 P:x            13
                        (      89.105 eV)
   216     216      1.000      -0.260 au  N             1.00      1 P:y            13
                        (      -7.062 eV)
   217     217       --         0.281 au  N             1.00      2 P:y            13
                        (       7.649 eV)
   218     218       --         3.275 au  N             1.00      3 P:y            13
                        (      89.105 eV)
   219     219      1.000      -0.260 au  N             1.00      1 P:z            13
                        (      -7.062 eV)
   220     220       --         0.281 au  N             1.00      2 P:z            13
                        (       7.649 eV)
   221     221       --         3.275 au  N             1.00      3 P:z            13
                        (      89.105 eV)
   222     222       --         1.250 au  N             1.00      1 D:z2           13
                        (      34.005 eV)
   223     223       --         1.250 au  N             1.00      1 D:x2-y2        13
                        (      34.005 eV)
   224     224       --         1.250 au  N             1.00      1 D:xy           13
                        (      34.005 eV)
   225     225       --         1.250 au  N             1.00      1 D:xz           13
                        (      34.005 eV)
   226     226       --         1.250 au  N             1.00      1 D:yz           13
                        (      34.005 eV)
   227     227       --         4.013 au  N             1.00      1 F:z3           13
                        (     109.190 eV)
   228     228       --         4.013 au  N             1.00      1 F:z            13
                        (     109.190 eV)
   229     229       --         4.013 au  N             1.00      1 F:xyz          13
                        (     109.190 eV)
   230     230       --         4.013 au  N             1.00      1 F:z2x          13
                        (     109.190 eV)
   231     231       --         4.013 au  N             1.00      1 F:z2y          13
                        (     109.190 eV)
   232     232       --         4.013 au  N             1.00      1 F:x            13
                        (     109.190 eV)
   233     233       --         4.013 au  N             1.00      1 F:y            13
                        (     109.190 eV)
   234     234      2.000     -14.160 au  N             1.00      1 S              14
                        (    -385.319 eV)
   235     235      2.000      -0.678 au  N             1.00      2 S              14
                        (     -18.450 eV)
   236     236       --         0.517 au  N             1.00      3 S              14
                        (      14.073 eV)
   237     237       --         6.872 au  N             1.00      4 S              14
                        (     186.990 eV)
   238     238       --        63.432 au  N             1.00      5 S              14
                        (    1726.082 eV)
   239     239      1.000      -0.260 au  N             1.00      1 P:x            14
                        (      -7.062 eV)
   240     240       --         0.281 au  N             1.00      2 P:x            14
                        (       7.649 eV)
   241     241       --         3.275 au  N             1.00      3 P:x            14
                        (      89.105 eV)
   242     242      1.000      -0.260 au  N             1.00      1 P:y            14
                        (      -7.062 eV)
   243     243       --         0.281 au  N             1.00      2 P:y            14
                        (       7.649 eV)
   244     244       --         3.275 au  N             1.00      3 P:y            14
                        (      89.105 eV)
   245     245      1.000      -0.260 au  N             1.00      1 P:z            14
                        (      -7.062 eV)
   246     246       --         0.281 au  N             1.00      2 P:z            14
                        (       7.649 eV)
   247     247       --         3.275 au  N             1.00      3 P:z            14
                        (      89.105 eV)
   248     248       --         1.250 au  N             1.00      1 D:z2           14
                        (      34.005 eV)
   249     249       --         1.250 au  N             1.00      1 D:x2-y2        14
                        (      34.005 eV)
   250     250       --         1.250 au  N             1.00      1 D:xy           14
                        (      34.005 eV)
   251     251       --         1.250 au  N             1.00      1 D:xz           14
                        (      34.005 eV)
   252     252       --         1.250 au  N             1.00      1 D:yz           14
                        (      34.005 eV)
   253     253       --         4.013 au  N             1.00      1 F:z3           14
                        (     109.190 eV)
   254     254       --         4.013 au  N             1.00      1 F:z            14
                        (     109.190 eV)
   255     255       --         4.013 au  N             1.00      1 F:xyz          14
                        (     109.190 eV)
   256     256       --         4.013 au  N             1.00      1 F:z2x          14
                        (     109.190 eV)
   257     257       --         4.013 au  N             1.00      1 F:z2y          14
                        (     109.190 eV)
   258     258       --         4.013 au  N             1.00      1 F:x            14
                        (     109.190 eV)
   259     259       --         4.013 au  N             1.00      1 F:y            14
                        (     109.190 eV)



 ================================
 (Slater-type)  F U N C T I O N S  ***  (Basis and Fit)  ***
 ================================
  

 Atom Type    1  (C)
 ==============

 Valence Basis Sets:  10
 -----------------------
   1 S    7.680000
   1 S    5.000000
   2 S    1.280000
   2 S    2.100000
   2 S    4.600000
   2 P    0.820000
   2 P    1.480000
   2 P    2.940000
   3 D    2.200000
   4 F    3.300000

 Atom Type    2  (H)
 ==============

 Valence Basis Sets:   5
 -----------------------
   1 S    0.690000
   1 S    0.920000
   1 S    1.580000
   2 P    1.250000
   3 D    2.500000

 Atom Type    3  (F)
 ==============

 Valence Basis Sets:  10
 -----------------------
   1 S   10.880000
   1 S    7.700000
   2 S    3.240000
   2 S    1.940000
   2 S    0.740000
   2 P    4.540000
   2 P    2.300000
   2 P    1.240000
   3 D    2.000000
   4 F    3.000000

 Atom Type    4  (N)
 ==============

 Valence Basis Sets:  10
 -----------------------
   1 S    8.740000
   1 S    5.900000
   2 S    5.150000
   2 S    2.500000
   2 S    1.500000
   2 P    3.680000
   2 P    1.880000
   2 P    1.000000
   3 D    2.200000
   4 F    3.300000


 BAS: List of all Elementary Cartesian Basis Functions
 =====================================================

 The numbering in the list below (to the right of the function characteristics) is referred
 to in print-outs of MO eigenvectors and Mulliken populations in the BAS representation
 (as contrasted to the SFO representation).

 Notes:
 1. The functions are characterized by a polynomial prefactor (powers of x,y,z and r) and
    an exponential decay factor alpha.
 2. Since the basis sets are specific for an atom TYPE, the individual functions occur on
    all atoms of that type.
 3. The word 'Core' in the left margin signals that it is a Core Function (CF) : not a
    degree of freedom in the valence set, but only used to ensure orthogonalization of
    the other valence basis functions on the frozen Core Orbitals.


 (power of) X  Y  Z  R     Alpha  on Atom
            ==========     =====     ==========

 C                                    1    2    3    4
                                  ---------------------------------------------------------------------------
            0  0  0  0     7.680      1   31   61   91
            0  0  0  0     5.000      2   32   62   92
            0  0  0  1     1.280      3   33   63   93
            0  0  0  1     2.100      4   34   64   94
            0  0  0  1     4.600      5   35   65   95
            1  0  0  0     0.820      6   36   66   96
            0  1  0  0     0.820      7   37   67   97
            0  0  1  0     0.820      8   38   68   98
            1  0  0  0     1.480      9   39   69   99
            0  1  0  0     1.480     10   40   70  100
            0  0  1  0     1.480     11   41   71  101
            1  0  0  0     2.940     12   42   72  102
            0  1  0  0     2.940     13   43   73  103
            0  0  1  0     2.940     14   44   74  104
            2  0  0  0     2.200     15   45   75  105
            1  1  0  0     2.200     16   46   76  106
            1  0  1  0     2.200     17   47   77  107
            0  2  0  0     2.200     18   48   78  108
            0  1  1  0     2.200     19   49   79  109
            0  0  2  0     2.200     20   50   80  110
            3  0  0  0     3.300     21   51   81  111
            2  1  0  0     3.300     22   52   82  112
            2  0  1  0     3.300     23   53   83  113
            1  2  0  0     3.300     24   54   84  114
            1  1  1  0     3.300     25   55   85  115
            1  0  2  0     3.300     26   56   86  116
            0  3  0  0     3.300     27   57   87  117
            0  2  1  0     3.300     28   58   88  118
            0  1  2  0     3.300     29   59   89  119
            0  0  3  0     3.300     30   60   90  120

 H                                    5    6    7    8    9   10   11
                                  ---------------------------------------------------------------------------
            0  0  0  0     0.690    121  133  145  157  169  181  193
            0  0  0  0     0.920    122  134  146  158  170  182  194
            0  0  0  0     1.580    123  135  147  159  171  183  195
            1  0  0  0     1.250    124  136  148  160  172  184  196
            0  1  0  0     1.250    125  137  149  161  173  185  197
            0  0  1  0     1.250    126  138  150  162  174  186  198
            2  0  0  0     2.500    127  139  151  163  175  187  199
            1  1  0  0     2.500    128  140  152  164  176  188  200
            1  0  1  0     2.500    129  141  153  165  177  189  201
            0  2  0  0     2.500    130  142  154  166  178  190  202
            0  1  1  0     2.500    131  143  155  167  179  191  203
            0  0  2  0     2.500    132  144  156  168  180  192  204

 F                                   12
                                  ---------------------------------------------------------------------------
            0  0  0  0    10.880    205
            0  0  0  0     7.700    206
            0  0  0  1     3.240    207
            0  0  0  1     1.940    208
            0  0  0  1     0.740    209
            1  0  0  0     4.540    210
            0  1  0  0     4.540    211
            0  0  1  0     4.540    212
            1  0  0  0     2.300    213
            0  1  0  0     2.300    214
            0  0  1  0     2.300    215
            1  0  0  0     1.240    216
            0  1  0  0     1.240    217
            0  0  1  0     1.240    218
            2  0  0  0     2.000    219
            1  1  0  0     2.000    220
            1  0  1  0     2.000    221
            0  2  0  0     2.000    222
            0  1  1  0     2.000    223
            0  0  2  0     2.000    224
            3  0  0  0     3.000    225
            2  1  0  0     3.000    226
            2  0  1  0     3.000    227
            1  2  0  0     3.000    228
            1  1  1  0     3.000    229
            1  0  2  0     3.000    230
            0  3  0  0     3.000    231
            0  2  1  0     3.000    232
            0  1  2  0     3.000    233
            0  0  3  0     3.000    234

 N                                   13   14
                                  ---------------------------------------------------------------------------
            0  0  0  0     8.740    235  265
            0  0  0  0     5.900    236  266
            0  0  0  1     5.150    237  267
            0  0  0  1     2.500    238  268
            0  0  0  1     1.500    239  269
            1  0  0  0     3.680    240  270
            0  1  0  0     3.680    241  271
            0  0  1  0     3.680    242  272
            1  0  0  0     1.880    243  273
            0  1  0  0     1.880    244  274
            0  0  1  0     1.880    245  275
            1  0  0  0     1.000    246  276
            0  1  0  0     1.000    247  277
            0  0  1  0     1.000    248  278
            2  0  0  0     2.200    249  279
            1  1  0  0     2.200    250  280
            1  0  1  0     2.200    251  281
            0  2  0  0     2.200    252  282
            0  1  1  0     2.200    253  283
            0  0  2  0     2.200    254  284
            3  0  0  0     3.300    255  285
            2  1  0  0     3.300    256  286
            2  0  1  0     3.300    257  287
            1  2  0  0     3.300    258  288
            1  1  1  0     3.300    259  289
            1  0  2  0     3.300    260  290
            0  3  0  0     3.300    261  291
            0  2  1  0     3.300    262  292
            0  1  2  0     3.300    263  293
            0  0  3  0     3.300    264  294

 Total number of charge fitting functions (nprimf)       939
 Total number of Cartesian basis functions (naos)        294
 Total number of Cartesian core functions  (ncos)          0

 ***************************************************************************************************



                                              ***********************
                                              *  T E C H N I C A L  *
                                              ***********************
  



 =============================================================
 P A R A L L E L I Z A T I O N  and  V E C T O R I Z A T I O N
 =============================================================
  
 Nr of parallel processes:                                1
 Maximum vector length in NumInt loops:                 128



 =====================
 S C F   U P D A T E S
 =====================
  
 Max. nr. of cycles:                               200
 Convergence criterion:                              0.0000010000
   secondary criterion:                              0.0010000000

 Mix parameter (when DIIS does not apply):           0.2000000000
 Mixed ADIIS+SDIIS will be used                  
    Max number of expansion vectors:                10
    Pure ADIIS when Max([F,P]) is above              0.1000000000
    Pure SDIIS when Max([F,P]) is below              0.0010000000
 Automatic ElectronSmearing (in case of problematic SCF convergence) disabled



 =================
 P R E C I S I O N  ***  (General: NumInt, NeglectFunctionTails, ...)  ***
 =================
  

 NumInt:           Target precision:                 4.0000000000
 -------           Initial precision:                4.0000000000
                   Min. precision (optimization):    4.0000000000

 Neglect Functions:          Basis functions:        0.1000000000E-05
 ------------------          Fit functions:          0.1000000000E-05



 ===========================
 L I N E A R   S C A L I N G
 ===========================
  

 Cut-off radii density fit:                        0.1000000000E-07
 Overlap cut-off criterion AO matrix elements:     0.1000000000E-05
 Cut-offs for Coulomb potential and fitted density:0.1000000000E-07
 Cut-off criterion for Coulomb multipole terms:    0.1000000000E-07
 Progressive Convergence parameter:                 0.000000000    
 ***************************************************************************************************



                                            ***************************
                                            *  C O M P U T A T I O N  *
                                            ***************************
  

 Number of elements of the density matrix on this node (used, total):     43365     43365



 ===========================================
 Numerical Integration : Fuzzy Cells (Becke)
 ===========================================
  
 Becke grid quality: NORMAL         
  
 Lebedev angular grid order:             min:  11 max:  23
 Nr. of radial points:                   min:  46 max:  55

 Total nr. of points:      91414
 Nr. of blocks:              715
 Block length:               128
 Nr. of dummy points:        106


 Test of Precision of the Numerical Integration Grid
 ===================================================

 Integral of the Total Core Density:                   0.00000000000000



 ========================
 Density Fitting (zlmFit)
 ========================
  
 ZlmFit Fit Quality: NORMAL         
  
 Max L-expansion:                        min:   6 max:   7
 Nr. of radial interpolation points:     min:  39 max:  51



 =====
 S C F  ***  ScaSCF  ***
 =====
  
 Initial density matrix is calculated as sum of fragments

 CYCLE    1
 SCF Error: norm([F,P])=      6.053226849061, max([F,P])=      1.413795220068
 orbitals (Q,E):
 ---------------
 A :18...37          ( 2.00    -0.5328)  ( 2.00    -0.5172)  ( 2.00    -0.5017)  ( 2.00    -0.4921)
                     ( 2.00    -0.4833)  ( 2.00    -0.4524)  ( 2.00    -0.4468)  ( 2.00    -0.4347)
                     ( 2.00    -0.4275)  ( 2.00    -0.4105)  ( 0.00    -0.2112)  ( 0.00    -0.1593)
                     ( 0.00    -0.0856)  ( 0.00    -0.0618)  ( 0.00    -0.0473)  ( 0.00    -0.0265)
                     ( 0.00    -0.0215)  ( 0.00    -0.0151)  ( 0.00    -0.0056)  ( 0.00     0.0034)

 CYCLE    2
   MIX coefficients:  0.8000  0.2000
 SCF Error: norm([F,P])=      1.274041913999, max([F,P])=      0.235255882670
 orbitals (Q,E):
 ---------------
 A :18...28          ( 2.00    -0.4659)  ( 2.00    -0.4615)  ( 2.00    -0.4465)  ( 2.00    -0.4376)
                     ( 2.00    -0.4251)  ( 2.00    -0.4032)  ( 2.00    -0.3978)  ( 2.00    -0.3834)
                     ( 2.00    -0.3759)  ( 2.00    -0.3459)  ( 0.00    -0.1800)

 CYCLE    3
  SDIIS (wt  0.000): -0.5847  1.5847
 A-DIIS (wt  1.000):  0.0000  1.0000
  DIIS coefficients:  0.0000  1.0000
 SCF Error: norm([F,P])=      0.601062540276, max([F,P])=      0.115643945723
 orbitals (Q,E):
 ---------------
 A :18...28          ( 2.00    -0.3249)  ( 2.00    -0.2936)  ( 2.00    -0.2832)  ( 2.00    -0.2715)
                     ( 2.00    -0.2614)  ( 2.00    -0.2547)  ( 2.00    -0.2489)  ( 2.00    -0.2448)
                     ( 2.00    -0.2346)  ( 2.00    -0.1715)  ( 0.00    -0.0700)

 CYCLE    4
  SDIIS (wt  0.000):  0.0642  0.5208  0.4150
 A-DIIS (wt  1.000):  0.0000  0.6674  0.3326
  DIIS coefficients:  0.0000  0.6674  0.3326
 SCF Error: norm([F,P])=      0.928998918471, max([F,P])=      0.209482232800
 orbitals (Q,E):
 ---------------
 A :18...28          ( 2.00    -0.3796)  ( 2.00    -0.3444)  ( 2.00    -0.3333)  ( 2.00    -0.3294)
                     ( 2.00    -0.3181)  ( 2.00    -0.3119)  ( 2.00    -0.3033)  ( 2.00    -0.2977)
                     ( 2.00    -0.2894)  ( 2.00    -0.2496)  ( 0.00    -0.1052)

 CYCLE    5
  SDIIS (wt  0.718):  0.0172  0.2878  0.1494  0.5456
 A-DIIS (wt  0.282):  0.0000  0.0000  0.0000  1.0000
  DIIS coefficients:  0.0123  0.2066  0.1073  0.6738
 SCF Error: norm([F,P])=      0.149358325375, max([F,P])=      0.028939975511
 orbitals (Q,E):
 ---------------
 A :18...28          ( 2.00    -0.3873)  ( 2.00    -0.3669)  ( 2.00    -0.3561)  ( 2.00    -0.3513)
                     ( 2.00    -0.3427)  ( 2.00    -0.3317)  ( 2.00    -0.3223)  ( 2.00    -0.2990)
                     ( 2.00    -0.2917)  ( 2.00    -0.2611)  ( 0.00    -0.1194)

 CYCLE    6
  SDIIS (wt  0.718): -0.0027  0.1423  0.0390  0.5218  0.2997
 A-DIIS (wt  0.282):  0.0000  0.0000  0.0000  0.4857  0.5143
  DIIS coefficients: -0.0019  0.1021  0.0280  0.5116  0.3602
 SCF Error: norm([F,P])=      0.162042315157, max([F,P])=      0.054910429620
 orbitals (Q,E):
 ---------------
 A :18...28          ( 2.00    -0.3906)  ( 2.00    -0.3601)  ( 2.00    -0.3485)  ( 2.00    -0.3470)
                     ( 2.00    -0.3366)  ( 2.00    -0.3245)  ( 2.00    -0.3212)  ( 2.00    -0.3123)
                     ( 2.00    -0.3027)  ( 2.00    -0.2580)  ( 0.00    -0.1183)

 CYCLE    7
  SDIIS (wt  0.849):  0.0018  0.0456  0.0137  0.2800  0.2603  0.3987
 A-DIIS (wt  0.151):  0.0000  0.0000  0.0000  0.0000  0.0925  0.9075
  DIIS coefficients:  0.0015  0.0387  0.0117  0.2376  0.2349  0.4757
 SCF Error: norm([F,P])=      0.053340942230, max([F,P])=      0.015995473548
 orbitals (Q,E):
 ---------------
 A :18...28          ( 2.00    -0.3865)  ( 2.00    -0.3582)  ( 2.00    -0.3464)  ( 2.00    -0.3445)
                     ( 2.00    -0.3347)  ( 2.00    -0.3215)  ( 2.00    -0.3169)  ( 2.00    -0.3063)
                     ( 2.00    -0.2966)  ( 2.00    -0.2591)  ( 0.00    -0.1151)

 CYCLE    8
  SDIIS (wt  0.952): -0.0014  0.0163  0.0021  0.1126  0.1118  0.3265  0.4322
 A-DIIS (wt  0.048):  0.0000  0.0000  0.0000  0.0000  0.0000  0.2007  0.7993
  DIIS coefficients: -0.0014  0.0155  0.0020  0.1072  0.1065  0.3204  0.4498
 SCF Error: norm([F,P])=      0.020871539031, max([F,P])=      0.005744443759
 orbitals (Q,E):
 ---------------
 A :18...28          ( 2.00    -0.3875)  ( 2.00    -0.3590)  ( 2.00    -0.3470)  ( 2.00    -0.3452)
                     ( 2.00    -0.3352)  ( 2.00    -0.3220)  ( 2.00    -0.3178)  ( 2.00    -0.3078)
                     ( 2.00    -0.2981)  ( 2.00    -0.2581)  ( 0.00    -0.1157)

 CYCLE    9
  SDIIS (wt  1.000): -0.0010  0.0057  0.0000  0.0393  0.0403  0.1482  0.2604  0.5071
  DIIS coefficients: -0.0010  0.0057  0.0000  0.0393  0.0403  0.1482  0.2604  0.5071
 SCF Error: norm([F,P])=      0.002558373974, max([F,P])=      0.000524535949
 orbitals (Q,E):
 ---------------
 A :18...28          ( 2.00    -0.3875)  ( 2.00    -0.3589)  ( 2.00    -0.3469)  ( 2.00    -0.3452)
                     ( 2.00    -0.3352)  ( 2.00    -0.3222)  ( 2.00    -0.3179)  ( 2.00    -0.3078)
                     ( 2.00    -0.2981)  ( 2.00    -0.2583)  ( 0.00    -0.1158)

 CYCLE   10
  SDIIS (wt  1.000): -0.0004  0.0010 -0.0002  0.0057  0.0056  0.0264  0.0562  0.1718  0.7338
  DIIS coefficients: -0.0004  0.0010 -0.0002  0.0057  0.0056  0.0264  0.0562  0.1718  0.7338
 SCF Error: norm([F,P])=      0.000338157677, max([F,P])=      0.000057991150
 orbitals (Q,E):
 ---------------
 A :18...28          ( 2.00    -0.3875)  ( 2.00    -0.3589)  ( 2.00    -0.3469)  ( 2.00    -0.3452)
                     ( 2.00    -0.3352)  ( 2.00    -0.3221)  ( 2.00    -0.3179)  ( 2.00    -0.3078)
                     ( 2.00    -0.2981)  ( 2.00    -0.2583)  ( 0.00    -0.1158)

 CYCLE   11
  SDIIS (wt  1.000): -0.0000  0.0001 -0.0001  0.0007  0.0007  0.0052  0.0131  0.0570  0.3531  0.5702
  DIIS coefficients: -0.0000  0.0001 -0.0001  0.0007  0.0007  0.0052  0.0131  0.0570  0.3531  0.5702
 SCF Error: norm([F,P])=      0.000136834532, max([F,P])=      0.000029037461
 orbitals (Q,E):
 ---------------
 A :18...28          ( 2.00    -0.3875)  ( 2.00    -0.3589)  ( 2.00    -0.3470)  ( 2.00    -0.3452)
                     ( 2.00    -0.3352)  ( 2.00    -0.3221)  ( 2.00    -0.3179)  ( 2.00    -0.3078)
                     ( 2.00    -0.2981)  ( 2.00    -0.2583)  ( 0.00    -0.1158)

 CYCLE   12
  SDIIS (wt  1.000):  0.0000 -0.0000  0.0003  0.0003  0.0024  0.0059  0.0267  0.1634  0.3113  0.4898
  DIIS coefficients:  0.0000 -0.0000  0.0003  0.0003  0.0024  0.0059  0.0267  0.1634  0.3113  0.4898
 SCF Error: norm([F,P])=      0.000040581913, max([F,P])=      0.000009876494
 orbitals (Q,E):
 ---------------
 A :18...28          ( 2.00    -0.3875)  ( 2.00    -0.3589)  ( 2.00    -0.3470)  ( 2.00    -0.3452)
                     ( 2.00    -0.3352)  ( 2.00    -0.3221)  ( 2.00    -0.3179)  ( 2.00    -0.3078)
                     ( 2.00    -0.2981)  ( 2.00    -0.2583)  ( 0.00    -0.1158)

 CYCLE   13
  SDIIS (wt  1.000): -0.0000 -0.0000 -0.0000  0.0001  0.0004  0.0039  0.0290  0.0750  0.2061  0.6856
  DIIS coefficients: -0.0000 -0.0000 -0.0000  0.0001  0.0004  0.0039  0.0290  0.0750  0.2061  0.6856
 SCF Error: norm([F,P])=      0.000010273615, max([F,P])=      0.000004074766
 orbitals (Q,E):
 ---------------
 A :18...28          ( 2.00    -0.3875)  ( 2.00    -0.3589)  ( 2.00    -0.3470)  ( 2.00    -0.3452)
                     ( 2.00    -0.3352)  ( 2.00    -0.3221)  ( 2.00    -0.3179)  ( 2.00    -0.3078)
                     ( 2.00    -0.2981)  ( 2.00    -0.2583)  ( 0.00    -0.1158)

 CYCLE   14
  SDIIS (wt  1.000): -0.0000 -0.0000 -0.0000 -0.0000  0.0005  0.0037  0.0133  0.0642  0.3343  0.5841
  DIIS coefficients: -0.0000 -0.0000 -0.0000 -0.0000  0.0005  0.0037  0.0133  0.0642  0.3343  0.5841
 SCF Error: norm([F,P])=      0.000002468330, max([F,P])=      0.000000930483
 orbitals (Q,E):
 ---------------
 A :18...28          ( 2.00    -0.3875)  ( 2.00    -0.3589)  ( 2.00    -0.3470)  ( 2.00    -0.3452)
                     ( 2.00    -0.3352)  ( 2.00    -0.3221)  ( 2.00    -0.3179)  ( 2.00    -0.3078)
                     ( 2.00    -0.2981)  ( 2.00    -0.2583)  ( 0.00    -0.1158)

 SCF CONVERGED

 CYCLE   15
 ***************************************************************************************************



                                                *******************
                                                *  R E S U L T S  *
                                                *******************
  
 *** Using FIT density in Focky
  SDIIS (wt  1.000): -0.0000  0.0000  0.0000  0.0002  0.0015  0.0048  0.0209  0.1033  0.3230  0.5464
  DIIS coefficients: -0.0000  0.0000  0.0000  0.0002  0.0015  0.0048  0.0209  0.1033  0.3230  0.5464
 SCF Error: norm([F,P])=      0.000000965747, max([F,P])=      0.000000299924

 Scaled ZORA Orbital Energies, per Irrep and Spin:
 =================================================
                        Occup              E (au)              E (eV)       Diff (eV) with prev. cycle
                        -----      --------------------        ------       --------------------------
 A
              18        2.000     -0.38751958828405E+00       -10.545               1.17E-06
              19        2.000     -0.35887889111179E+00        -9.766               8.51E-07
              20        2.000     -0.34695226203647E+00        -9.441               5.48E-07
              21        2.000     -0.34520293358790E+00        -9.393               6.12E-07
              22        2.000     -0.33522205771888E+00        -9.122               6.11E-07
              23        2.000     -0.32214360321730E+00        -8.766               2.07E-07
              24        2.000     -0.31789269412240E+00        -8.650               4.37E-07
              25        2.000     -0.30781581335766E+00        -8.376               1.68E-06
              26        2.000     -0.29810753401742E+00        -8.112               1.52E-06
              27        2.000     -0.25834421591881E+00        -7.030               3.23E-07
              28        0.000     -0.11581320200684E+00        -3.151
              29        0.000     -0.48568973900517E-01        -1.322
              30        0.000     -0.24818300591964E-01        -0.675
              31        0.000      0.34066949337806E-02         0.093
              32        0.000      0.62881424223455E-02         0.171
              33        0.000      0.23605279304938E-01         0.642
              34        0.000      0.39976099975161E-01         1.088
              35        0.000      0.49508166923558E-01         1.347
              36        0.000      0.54590677544339E-01         1.485
              37        0.000      0.73726032827022E-01         2.006
  
 HOMO :       27 A                -0.25834421591881E+00
 LUMO :       28 A                -0.11581320200684E+00
  


 All Electron Calculation, thus no Orbital Energies of the Core Orbitals are calculated


 Fit test: (difference of exact and fit density, squared integrated, result summed over spins)
         Sum-of-Fragments:                             0.00000000109164
         Orthogonalized Fragments:                     0.00006996165162
         SCF:                                          0.00016894400425



 ==========================
 Electron Density at Nuclei
 ==========================
  
 The electron density is calculated at points on a small sphere around the center of a nucleus.
 The printed electron density is the average electron density on these points.
 The radius of the sphere is the printed approximate finite nuclear radius.
 Note: ZORA-4 density is used, which includes small component density

         Atom        Nuclear Radius (Angstrom)             Electron Density (a.u.)
         ----        -------------------------             -----------------------
     1)   C                 0.0000320678                              127.21118
     2)   H                 0.0000181514                                0.51384
     3)   F                 0.0000361580                              450.92703
     4)   C                 0.0000320678                              127.02991
     5)   H                 0.0000181514                                0.50709
     6)   C                 0.0000320678                              127.41827
     7)   N                 0.0000333706                              207.01351
     8)   N                 0.0000333706                              206.07867
     9)   H                 0.0000181514                                0.50530
    10)   H                 0.0000181514                                0.49484
    11)   C                 0.0000320678                              126.97542
    12)   H                 0.0000181514                                0.51216
    13)   H                 0.0000181514                                0.51119
    14)   H                 0.0000181514                                0.50760



 =======================================
 M U L L I K E N   P O P U L A T I O N S
 =======================================
  
 The survey below gives for each atom:
 a) the total charge (Z minus electrons)
 b) the net spin polarization (nr of electrons spin-A minus spin-B)
 c) for each spin the atomic electron valence density (integrated) per L-value.

 Atom              Charge    Spin density          S         P         D         F
 ----              ------    ------------       ------    ------    ------    ------
 1 C               0.4577                       3.1242    2.2872    0.1230    0.0078
 2 H              -0.1962                       1.1129    0.0773    0.0059    0.0000
 3 F              -0.4366                       3.9848    5.4307    0.0192    0.0019
 4 C               0.4505                       2.9578    2.5304    0.0580    0.0033
 5 H              -0.1391                       1.0536    0.0792    0.0063    0.0000
 6 C               0.1069                       3.0919    2.7337    0.0584    0.0091
 7 N              -0.2235                       3.7474    3.4164    0.0554    0.0043
 8 N              -0.0214                       3.3930    3.5823    0.0431    0.0030
 9 H              -0.0464                       0.9181    0.1187    0.0097    0.0000
 10 H             -0.0078                       0.8785    0.1191    0.0102    0.0000
 11 C              0.6564                       2.8342    2.4657    0.0413    0.0023
 12 H             -0.1959                       1.1056    0.0842    0.0061    0.0000
 13 H             -0.1747                       1.0864    0.0823    0.0060    0.0000
 14 H             -0.2300                       1.1400    0.0841    0.0060    0.0000

 Populations of individual BAS functions
 ----------------------------------------
 1 C            0.5062  1.4846  0.2537  0.9190 -0.0392 -0.0262 -0.1722 -0.1543  0.5140  0.8713
                0.7730  0.1065  0.1979  0.1773 -0.0035  0.0176  0.0182  0.0288  0.0310  0.0310
               -0.0014 -0.0038 -0.0033  0.0014  0.0007  0.0018  0.0040  0.0023  0.0021  0.0040
 4 C            0.5077  1.4809  0.1130  0.8938 -0.0376 -0.1165 -0.1235 -0.1500  0.8102  0.7333
                0.8155  0.1999  0.1696  0.1918  0.0039  0.0059  0.0123  0.0158  0.0101  0.0102
               -0.0017 -0.0022 -0.0011  0.0010  0.0002  0.0014  0.0041  0.0008 -0.0007  0.0014
 6 C            0.5056  1.4804  0.2863  0.8498 -0.0301  0.0754  0.0411  0.0013  0.6795  0.6832
                0.6946  0.1594  0.1823  0.2170 -0.0190  0.0054  0.0129  0.0062  0.0151  0.0378
               -0.0061 -0.0033 -0.0052  0.0012  0.0015  0.0064 -0.0012  0.0004  0.0068  0.0086
 11 C           0.5069  1.4821 -0.0231  0.9089 -0.0407 -0.1509 -0.1752 -0.1337  0.7880  0.8024
                0.7515  0.2016  0.1956  0.1865  0.0034  0.0035  0.0111  0.0069  0.0068  0.0096
               -0.0005 -0.0008 -0.0008 -0.0007  0.0002  0.0017  0.0009 -0.0008  0.0007  0.0024
 2 H            0.1595  0.6396  0.3138  0.0329  0.0213  0.0232  0.0109  0.0014  0.0017 -0.0034
                0.0004 -0.0051
 5 H            0.1118  0.6216  0.3202  0.0335  0.0195  0.0261  0.0026  0.0012  0.0014 -0.0036
                0.0010  0.0038
 9 H           -0.0265  0.6238  0.3208  0.0358  0.0405  0.0424  0.0109  0.0025  0.0028 -0.0019
                0.0008 -0.0054
 10 H          -0.0142  0.5647  0.3281  0.0417  0.0403  0.0371  0.0052  0.0025  0.0021  0.0039
                0.0015 -0.0049
 12 H           0.1185  0.6750  0.3121  0.0294  0.0287  0.0261  0.0028  0.0010  0.0013 -0.0040
                0.0011  0.0040
 13 H           0.1107  0.6578  0.3179  0.0328  0.0276  0.0219  0.0108  0.0017  0.0016 -0.0039
                0.0004 -0.0046
 14 H           0.1699  0.6637  0.3063  0.0242  0.0368  0.0231 -0.0065  0.0021  0.0001  0.0141
                0.0020 -0.0059
 3 F            0.5913  1.3848  1.0993  0.8990  0.0104  0.3155  0.4170  0.4091  0.8196  0.9927
                0.9787  0.3954  0.5551  0.5474  0.0188  0.0037  0.0042 -0.0043  0.0010 -0.0042
                0.0105  0.0064  0.0064 -0.0048  0.0001 -0.0047 -0.0047 -0.0016 -0.0014 -0.0044
 7 N            0.5464  1.4326 -0.0256  1.0299  0.7642  0.1443  0.1717  0.1991  0.6550  0.7376
                0.8141  0.2328  0.2374  0.2243 -0.0022  0.0062  0.0126  0.0073  0.0136  0.0179
               -0.0044 -0.0025 -0.0038  0.0008  0.0008  0.0043 -0.0007 -0.0002  0.0042  0.0058
 8 N            0.5503  1.4301 -0.0322  0.9944  0.4503  0.1759  0.1967  0.1868  0.8344  0.8751
                0.8242  0.0125  0.2093  0.2673  0.0123  0.0118  0.0058 -0.0001  0.0073  0.0059
                0.0003  0.0038 -0.0002  0.0012  0.0003 -0.0009 -0.0031 -0.0019  0.0006  0.0028

 Gross Charges per Atom (Z minus electrons)
 ==========================================
             0.4577   -0.1962   -0.4366    0.4505   -0.1391    0.1069   -0.2235   -0.0214   -0.0464   -0.0078
             0.6564   -0.1959   -0.1747   -0.2300
 Net Total:  0.00000000


 Atom-Atom Population Matrix (off-diagonal elements not doubled)
 ===============================================================

     1 :     4.4936
     2 :    -0.0339    1.0398
     3 :     0.1778    0.0090    9.4397
     4 :     0.3759    0.3371   -0.0316    4.2484
     5 :    -0.0359   -0.0404   -0.0340    0.4083    0.9214
     6 :     0.3924   -0.0046   -0.0374   -0.0538   -0.0006    4.7788
     7 :     0.0108   -0.0002   -0.0124   -0.0014   -0.0002    0.8712    6.3640
     8 :     0.3140   -0.0158   -0.0516   -0.0283   -0.0125   -0.0424   -0.0013    5.9728
     9 :    -0.0452   -0.0021    0.0085   -0.0059   -0.0007   -0.0140   -0.0004    0.4227    0.7290
    10 :    -0.0540   -0.0001   -0.0193    0.0028   -0.0000   -0.0095   -0.0001    0.4598   -0.0428    0.6733
    11 :    -0.0287   -0.0521   -0.0132    0.3838   -0.0313    0.0092   -0.0003    0.0044   -0.0017   -0.0019
             3.9823
    12 :    -0.0174   -0.0335   -0.0029   -0.0366    0.0128    0.0043   -0.0037    0.0004    0.0000   -0.0004
             0.3699    1.0049
    13 :    -0.0137    0.0168    0.0009   -0.0329   -0.0256   -0.0015   -0.0033    0.0003   -0.0007    0.0005
             0.3759   -0.0594    0.9606
    14 :     0.0066   -0.0239    0.0030   -0.0164   -0.0222    0.0010    0.0006   -0.0012   -0.0004   -0.0004
             0.3472   -0.0427   -0.0433    1.0222



 =================================================
 H I R S H F E L D   C H A R G E   A N A L Y S I S
 =================================================
  
 For each fragment: the (numerical) integral of rho(scf) * rho(fragment)/rho(sum-of-fragments)
 (nuclear charges are included, electrons are counted negative)

 The fragments and their ordering are defined in the early G E O M E T R Y output section.
 If you use single-atom fragments, this usually implies that all atoms of the same
 chemical type are grouped together. This may not be the order in which you listed them
 in the input file!

  Fragment                       Charge
 ------------------------------------------
    1  C                         0.1824
    2  C                        -0.0579
[...]
                                   -2.52%     2 P:z             4.589  0.00     2 C
                                   -1.41%     2 S               2.394  0.00     8 H
                                    1.36%     1 S              -6.532  1.00     7 H
                                    1.32%     3 S              40.869  0.00     9 H
                                    1.29%     1 P:x            -5.239  0.67     2 C
                                    1.24%     2 S               2.394  0.00    10 H
       1.347  0.00    35 A         25.52%     1 S              -6.532  1.00     7 H
                                   17.06%     1 S              -6.532  1.00     8 H
                                   13.06%     1 S              -6.532  1.00     5 H
                                  -12.31%     2 P:x             7.649  0.00    14 N
                                   11.12%     2 S               2.394  0.00     8 H
                                    8.66%     3 S               0.624  0.00    12 F
                                    5.82%     2 S               2.394  0.00     7 H
                                    3.75%     1 P:x            -7.062  1.00    14 N
                                    3.43%     1 P:x            -5.239  0.67     3 C
                                   -3.28%     2 P:x             4.589  0.00     2 C
                                    3.14%     3 S              40.869  0.00     7 H
                                    3.13%     2 S               2.394  0.00     5 H
                                    2.92%     1 P:x            -7.062  1.00    13 N
                                    2.30%     2 S               2.394  0.00    11 H
                                    2.19%     2 P:x             4.589  0.00     4 C
                                    1.86%     2 S             -13.620  2.00     3 C
                                   -1.79%     2 P:x             4.589  0.00     1 C
                                   -1.71%     2 S               2.394  0.00     6 H
                                    1.58%     1 P:x            -5.239  0.67     1 C
                                    1.53%     1 P:x            -5.239  0.67     2 C
                                    1.40%     2 P:y             4.589  0.00     1 C
                                    1.24%     1 P:y            -5.239  0.67     2 C
                                   -1.06%     3 S              14.073  0.00    13 N
                                   -1.04%     3 S              10.158  0.00     4 C
       1.485  0.00    36 A        -31.49%     2 P:y             4.589  0.00     4 C
                                   30.35%     1 S              -6.532  1.00    11 H
                                   18.63%     1 S              -6.532  1.00     6 H
                                   18.01%     2 S               2.394  0.00    11 H
                                   15.59%     3 S               0.624  0.00    12 F
                                    9.90%     2 S               2.394  0.00     6 H
                                    7.93%     1 S              -6.532  1.00    10 H
                                    7.76%     1 S              -6.532  1.00     8 H
                                    6.53%     2 S               2.394  0.00    10 H
                                    4.72%     1 P:y            -5.239  0.67     2 C
                                    4.64%     1 P:y            -5.239  0.67     4 C
                                   -4.27%     2 P:x             4.589  0.00     2 C
                                    3.98%     2 P:y             4.589  0.00     2 C
                                   -3.47%     2 P:y             4.589  0.00     1 C
                                    3.09%     3 S              40.869  0.00    11 H
                                    2.99%     1 P:z            -5.239  0.67     4 C
                                   -2.87%     2 P:z             4.589  0.00     2 C
                                    2.15%     1 S              -6.532  1.00     9 H
                                    1.66%     2 S               2.394  0.00     8 H
                                   -1.36%     1 P:y            -5.239  0.67     1 C
                                    1.27%     2 P:z             4.589  0.00     3 C
                                    1.19%     1 P:x            -5.239  0.67     3 C
                                    1.18%     1 P:z            -5.239  0.67     2 C
                                    1.16%     2 P:z             4.589  0.00     4 C
                                   -1.01%     3 S              10.158  0.00     1 C
       2.006  0.00    37 A         22.58%     1 S              -6.532  1.00    10 H
                                   11.05%     1 P:y            -5.239  0.67     2 C
                                    9.36%     2 S             -13.620  2.00     1 C
                                   -8.09%     2 S               2.394  0.00    11 H
                                    7.76%     1 S              -6.532  1.00    11 H
                                   -7.47%     2 P:x             4.589  0.00     4 C
                                    7.32%     2 P:z             4.589  0.00     1 C
                                    6.79%     2 P:y             4.589  0.00     1 C
                                    6.66%     1 P:y            -5.239  0.67     4 C
                                    6.61%     2 S               2.394  0.00    10 H
                                   -6.32%     3 S              14.073  0.00    13 N
                                    6.03%     2 P:z             4.589  0.00     3 C
                                    5.60%     2 P:y             4.589  0.00     3 C
                                    3.76%     1 P:x            -5.239  0.67     2 C
                                    3.65%     1 S              -6.532  1.00     6 H
                                    3.64%     1 P:x            -5.239  0.67     3 C
                                   -3.48%     3 S              10.158  0.00     1 C
                                    3.13%     1 S              -6.532  1.00     5 H
                                    3.11%     1 P:x            -5.239  0.67     4 C
                                   -3.02%     2 P:x             4.589  0.00     2 C
                                    2.26%     1 P:y            -5.239  0.67     3 C
                                   -1.92%     3 S              10.158  0.00     4 C
                                    1.43%     1 P:z            -7.062  1.00    14 N
                                   -1.41%     2 S               2.394  0.00     6 H
                                    1.40%     1 P:z            -5.239  0.67     2 C
                                    1.38%     1 P:z            -5.239  0.67     4 C
                                    1.31%     1 P:z            -7.062  1.00    13 N
                                    1.29%     1 P:y            -7.062  1.00    14 N
                                    1.28%     1 P:x            -7.062  1.00    13 N
                                    1.25%     2 P:z             7.649  0.00    14 N
                                    1.24%     2 P:z             4.589  0.00     4 C
                                    1.22%     1 P:z            -5.239  0.67     1 C
                                    1.13%     2 P:y             7.649  0.00    14 N
                                    1.09%     3 S               0.624  0.00    12 F
                                   -1.06%     2 P:y             4.589  0.00     4 C
       2.248  0.00    38 A         23.44%     1 S              -6.532  1.00     9 H
                                  -19.18%     2 P:x             4.589  0.00     4 C
                                   13.37%     1 S              -6.532  1.00    10 H
                                  -11.73%     2 P:x             4.589  0.00     2 C
                                   11.33%     1 S              -6.532  1.00     6 H
                                   10.99%     1 P:x            -5.239  0.67     4 C
                                   10.19%     2 S               2.394  0.00     6 H
                                    7.77%     2 S               2.394  0.00    10 H
                                    5.27%     1 P:x            -5.239  0.67     2 C
                                    5.26%     1 S              -6.532  1.00     5 H
                                    5.05%     1 P:x            -5.239  0.67     1 C
                                    4.40%     1 P:x            -5.239  0.67     3 C
                                    3.64%     2 S             -13.620  2.00     1 C
                                    3.59%     2 S               2.394  0.00     8 H
                                   -3.29%     2 P:z             4.589  0.00     2 C
                                    2.66%     2 S               2.394  0.00     5 H
                                    2.23%     3 S              40.869  0.00     9 H
                                    2.21%     2 P:y             4.589  0.00     1 C
                                    2.16%     3 S              40.869  0.00     6 H
                                   -2.08%     2 P:x             4.589  0.00     1 C
                                    2.03%     2 P:z             4.589  0.00     1 C
                                   -1.87%     3 S              14.073  0.00    13 N
                                   -1.81%     3 S              10.158  0.00     1 C
                                    1.77%     3 S              40.869  0.00     5 H
                                    1.74%     2 P:y             4.589  0.00     3 C
                                    1.69%     2 P:x             4.589  0.00     3 C
                                    1.67%     1 P:z            -5.239  0.67     1 C
                                    1.59%     1 P:x           -11.127  1.67    12 F
                                    1.57%     3 S               0.624  0.00    12 F
                                    1.57%     1 S              -6.532  1.00    11 H
                                    1.48%     3 S              40.869  0.00    10 H
                                    1.41%     1 P:x            -7.062  1.00    13 N
                                    1.32%     1 P:y            -5.239  0.67     2 C
                                    1.28%     1 P:y            -5.239  0.67     4 C
                                   -1.23%     2 S               2.394  0.00    11 H
                                    1.17%     1 P:z            -5.239  0.67     2 C
                                    1.10%     2 P:y             4.589  0.00     2 C



 =======================================================================
 Electrostatic potential at the Nuclei due to electrons and other nuclei
 =======================================================================
  
         Atom                  Potential
         ----                  ---------
     1)   C                  14.62177288
     2)   H                   1.08766619
     3)   F                  26.68473093
     4)   C                  14.75649308
     5)   H                   1.09059792
     6)   C                  14.73617137
     7)   N                  18.40649816
     8)   N                  18.38961650
     9)   H                   1.01204636
    10)   H                   1.01320106
    11)   C                  14.78202636
    12)   H                   1.10792542
    13)   H                   1.11113458
    14)   H                   1.10529165
 Mulliken charges used for AMS results%charges...


    =====================
     CALCULATION RESULTS
    =====================

Energy (hartree)            -2.85498202


--------------
Atomic charges
--------------
  Index   Atom    Charge
      1      C    0.4577
      2      H   -0.1962
      3      F   -0.4366
      4      C    0.4505
      5      H   -0.1391
      6      C    0.1069
      7      N   -0.2235
      8      N   -0.0214
      9      H   -0.0464
     10      H   -0.0078
     11      C    0.6564
     12      H   -0.1959
     13      H   -0.1747
     14      H   -0.2300


Dipole moment vector    (Debye):     2.60218120    1.44017775    1.50398744
              magnitude (Debye):     3.33278220


-----------------------
Molecular orbitals info
-----------------------
n orbitals:              259
n spin:                    1

Note: only printing virtual orbitals with
      energy smaller than HOMO + 100. eV

HOMO (eV):              -7.0299
LUMO (eV):              -3.1514
HOMO-LUMO gap (eV):      3.8785

   Index   Energy (eV)    Occupation
     163       92.9568         0.000       
     162       92.6309         0.000       
     161       92.4197         0.000       
     160       91.8432         0.000       
     159       90.6491         0.000       
     158       89.9996         0.000       
     157       86.6518         0.000       
     156       85.6389         0.000       
     155       84.7801         0.000       
     154       84.4026         0.000       
     153       83.3797         0.000       
     152       81.8788         0.000       
     151       80.6982         0.000       
     150       80.4691         0.000       
     149       80.1862         0.000       
     148       79.6966         0.000       
     147       79.2707         0.000       
     146       77.8620         0.000       
     145       77.2491         0.000       
     144       76.2729         0.000       
     143       76.0659         0.000       
     142       75.2529         0.000       
     141       72.9485         0.000       
     140       71.8719         0.000       
     139       71.3439         0.000       
     138       70.5840         0.000       
     137       69.8675         0.000       
     136       69.1119         0.000       
     135       67.5505         0.000       
     134       66.1386         0.000       
     133       64.5884         0.000       
     132       63.4267         0.000       
     131       63.1253         0.000       
     130       62.6185         0.000       
     129       60.7437         0.000       
     128       60.2130         0.000       
     127       59.6986         0.000       
     126       58.9180         0.000       
     125       57.9736         0.000       
     124       56.3766         0.000       
     123       54.7384         0.000       
     122       54.4779         0.000       
     121       53.9381         0.000       
     120       53.6698         0.000       
     119       52.1628         0.000       
     118       51.1528         0.000       
     117       50.1779         0.000       
     116       49.8236         0.000       
     115       48.7973         0.000       
     114       48.4728         0.000       
     113       47.3938         0.000       
     112       47.0286         0.000       
     111       46.2176         0.000       
     110       44.8694         0.000       
     109       43.8855         0.000       
     108       43.1590         0.000       
     107       42.4192         0.000       
     106       41.8087         0.000       
     105       41.4026         0.000       
     104       40.5399         0.000       
     103       39.9728         0.000       
     102       38.9026         0.000       
     101       38.3889         0.000       
     100       37.1617         0.000       
      99       36.8920         0.000       
      98       35.2275         0.000       
      97       34.8761         0.000       
      96       34.7696         0.000       
      95       34.1790         0.000       
      94       33.8472         0.000       
      93       33.1897         0.000       
      92       33.0975         0.000       
      91       32.4649         0.000       
      90       32.4141         0.000       
      89       30.9667         0.000       
      88       30.4474         0.000       
      87       29.7834         0.000       
      86       29.6523         0.000       
      85       28.5847         0.000       
      84       28.3058         0.000       
      83       27.7602         0.000       
      82       27.3643         0.000       
      81       27.2285         0.000       
      80       26.5747         0.000       
      79       25.9838         0.000       
      78       24.9170         0.000       
      77       24.3571         0.000       
      76       23.2890         0.000       
      75       22.1438         0.000       
      74       21.6568         0.000       
      73       21.0911         0.000       
      72       19.7096         0.000       
      71       19.3016         0.000       
      70       18.7305         0.000       
      69       18.4657         0.000       
      68       17.3147         0.000       
      67       16.0393         0.000       
      66       15.2332         0.000       
      65       13.7017         0.000       
      64       13.0147         0.000       
      63       12.5965         0.000       
      62       12.0108         0.000       
      61       11.3860         0.000       
      60       11.2010         0.000       
      59       10.9553         0.000       
      58       10.8721         0.000       
      57       10.4143         0.000       
      56       10.2951         0.000       
      55        9.7698         0.000       
      54        9.5081         0.000       
      53        8.8156         0.000       
      52        8.2461         0.000       
      51        7.5379         0.000       
      50        7.3300         0.000       
      49        6.8929         0.000       
      48        6.2374         0.000       
      47        6.1378         0.000       
      46        5.6096         0.000       
      45        5.5300         0.000       
      44        4.5726         0.000       
      43        4.3293         0.000       
      42        4.2476         0.000       
      41        3.7273         0.000       
      40        3.4813         0.000       
      39        3.0720         0.000       
      38        2.2477         0.000       
      37        2.0062         0.000       
      36        1.4855         0.000       
      35        1.3472         0.000       
      34        1.0878         0.000       
      33        0.6423         0.000       
      32        0.1711         0.000       
      31        0.0927         0.000       
      30       -0.6753         0.000       
      29       -1.3216         0.000       
      28       -3.1514         0.000 < LUMO
      27       -7.0299         2.000 < HOMO
      26       -8.1119         2.000       
      25       -8.3761         2.000       
      24       -8.6503         2.000       
      23       -8.7660         2.000       
      22       -9.1219         2.000       
      21       -9.3934         2.000       
      20       -9.4411         2.000       
      19       -9.7656         2.000       
      18      -10.5449         2.000       
      17      -11.6933         2.000       
      16      -12.2575         2.000       
      15      -13.1528         2.000       
      14      -13.6969         2.000       
      13      -16.0796         2.000       
      12      -17.7890         2.000       
      11      -20.1678         2.000       
      10      -22.7515         2.000       
       9      -23.5140         2.000       
       8      -28.1694         2.000       
       7     -270.0946         2.000       
       6     -270.8128         2.000       
       5     -271.7739         2.000       
       4     -274.5046         2.000       
       3     -382.3474         2.000       
       2     -382.4299         2.000       
       1     -660.5367         2.000       

AMS application finished. Exiting.
NORMAL TERMINATION
     Total cpu time:      43.60
  Total system time:       0.36
 Total elapsed time:      44.10
NORMAL TERMINATION
