
 *******************************************************************************
 *                                                                             *
 *  --------------------------------                                           *
 *   Amsterdam Modeling Suite (AMS)              2026.103                      *
 *  --------------------------------                                           *
 *                                               r260501 2026-05-01 873454b5   *
 *                                                                             *
 *                                                                             *
 *                              =================                              *
 *                              |               |                              *
 *                              |     A M S     |                              *
 *                              |               |                              *
 *                              =================                              *
 *                                                                             *
 *                                                                             *
 *   Online information and documentation:  https://www.scm.com/support/       *
 *   E-mail:  support@scm.com   info@scm.com                                   *
 *                                                                             *
 *   Scientific publications using AMS results must be properly referenced     *
 *   See the User Manuals (or the web site) for recommended citations          *
 *   The terms and conditions of the End User License Agreement apply to       *
 *   the use of AMS, https://www.scm.com/license-terms/                        *
 *                                                                             *
 **********************  x86_64_linux_intel / intelmpi  ************************
 
 Licensed to: Jong-June Jeon / University of Seoul 2026-05-13 16:10:32
 SCM User ID: u30731
  
 AMS 2026.103  RunTime: May23-2026 12:22:12  ShM Nodes: 1  Procs: 1

 AMS jobname: optA
 AMS jobid  : 2112704350

 Start   directory: /gpfs/tmp_cpu2/yeseo1ee_plams/i_batch/plams_i/optA/
 Results directory: /gpfs/tmp_cpu2/yeseo1ee_plams/i_batch/plams_i/optA/
 Scratch directory: /tmp/amstmp_optA_kid0.2112704350/

 RNG seed: -774938099 -1831105709 -1821096846 -1240367349 -1337920878 705305118 -535065114 2039671846



                      ************************************************************************
                      *  ADF 2026.103  RunTime: May23-2026 12:22:12  ShM Nodes: 1  Procs: 1  *
                      ************************************************************************
  

       ***************************
       *  GEOMETRY OPTIMIZATION  *
       ***************************

Optimization Method                    Quasi Newton
Optimization Coordinates               Delocalized Coordinates
Optimize lattice                       F
 
 ------------------------------------------------------
 Convergence criteria (Hartree,Angstrom)
 ------------------------------------------------------
 Maximum gradient               0.001000000000
 Maximum rms gradient           0.000666666667
 Maximum step allowed           0.010000000000
 Maximum rms step allowed       0.006666666667
 Maximum energy change allowe   0.000060000000
 Maximum stress energy allowe   0.000500000000
 
Initial model Hessian                  Automatic Hessian
 
------------------------------------
Quasi-Newton Optimizer Parameters
------------------------------------
Hessian Update Method                  BFGS
Maximum number of steps                  250
First GDIIS cycle                          0
Maximum GDIIS vectors                      0
Trust radius (bohr)                        0.200000
Trust radius varies                        T
Constraints converged at all steps         T
Use projector                              T
 
 Rigid motions settings for: old optimizer
 Atomic rotations (x,y,z):     T T T
 Atomic translations (x,y,z):  T T T
 Tolerance:                  1.000000000000000E-006

--------
Geometry
--------
Formula: C2H2IO
Atoms
  Index Symbol   x (angstrom)   y (angstrom)   z (angstrom)
      1      C     1.09307518     1.22358905    -0.09072175
      2      C     1.44672753    -0.07342948     0.13483545
      3      I     2.11762310    -0.53710796     2.16820137
      4      O     1.17243047    -1.04791173    -0.59594711
      5      H     0.87729637     1.50701577    -1.11090160
      6      H     1.35975229     1.99904434     0.61037632

Total System Charge              0.00000


----------------
ADF Engine Input
----------------
 
   basis
     core None
     type TZ2P
   End
   numericalquality Good
   relativity
     level Scalar
   End
   scf
     mixing 0.05
   End
   spinpolarization 1
   symmetry NOSYM
   unrestricted yes
   xc
     dispersion Grimme3 BJDAMP
     gga BLYP
   End
 

 Title: *** (NO TITLE) ***

 Using automatic Hessian for delocalized coordinates.
 *** GO1_GOStep1 ***

 Energy gradients wrt nuclear displacements
 ==========================================

     Atom      Cartesian (a.u./angstrom)
                 X         Y         Z
 ----------------------------------------
     1 C    -0.025731 -0.080064  0.016234
     2 C     0.041273  0.138199  0.025744
     3 I    -0.014286 -0.003129 -0.023387
     4 O    -0.025644 -0.046593 -0.018360
     5 H     0.016132 -0.002015  0.008612
     6 H     0.008257 -0.006398 -0.008843
 ----------------------------------------
 
----------------------------------------------------------------------
Geometry Convergence after Step   1       (Hartree/Angstrom,Angstrom)
----------------------------------------------------------------------
current energy                               -1.10334081 Hartree
energy change                      -1.10334081     0.00006000    F
constrained gradient max            0.13820122     0.00100000    F
constrained gradient rms            0.04298146     0.00066667    F
gradient max                        0.13820122
gradient rms                        0.04298146
cart. step max                      0.03861436     0.01000000    F
cart. step rms                      0.01676842     0.00666667    F
 

--------
Geometry
--------
Formula: C2H2IO
Atoms
  Index Symbol   x (angstrom)   y (angstrom)   z (angstrom)
      1      C     1.11061916     1.23541493    -0.10065794
      2      C     1.40811317    -0.11086868     0.14242708
      3      I     2.13547065    -0.53248330     2.18097146
      4      O     1.18294961    -1.05770613    -0.60489450
      5      H     0.87842132     1.52852221    -1.12038645
      6      H     1.35133103     2.00832096     0.61838303

Total System Charge              0.00000

 *** GO1_GOStep2 ***

 Energy gradients wrt nuclear displacements
 ==========================================

     Atom      Cartesian (a.u./angstrom)
                 X         Y         Z
 ----------------------------------------
     1 C    -0.021785 -0.037518  0.007244
     2 C     0.028408  0.059865  0.023705
     3 I    -0.009574 -0.001945 -0.018546
     4 O    -0.012271 -0.022646 -0.009643
     5 H     0.009718  0.001951  0.002498
     6 H     0.005504  0.000294 -0.005258
 ----------------------------------------

 dE(predicted):    -0.62882E-02, dE(actual):    -0.65082E-02, Trust radius:    0.400000, all in a.u.
 
----------------------------------------------------------------------
Geometry Convergence after Step   2       (Hartree/Angstrom,Angstrom)
----------------------------------------------------------------------
current energy                               -1.10984900 Hartree
energy change                      -0.00650819     0.00006000    F
constrained gradient max            0.05986578     0.00100000    F
constrained gradient rms            0.02140318     0.00066667    F
gradient max                        0.05986578
gradient rms                        0.02140318
cart. step max                      0.06408536     0.01000000    F
cart. step rms                      0.02435552     0.00666667    F
 

--------
Geometry
--------
Formula: C2H2IO
Atoms
  Index Symbol   x (angstrom)   y (angstrom)   z (angstrom)
      1      C     1.17470452     1.24320036    -0.11965165
      2      C     1.38059341    -0.14390872     0.13209033
      3      I     2.13321862    -0.49876290     2.19935355
      4      O     1.18727541    -1.06443225    -0.62535021
      5      H     0.84368424     1.54102048    -1.11354320
      6      H     1.34742874     1.99408303     0.64294385

Total System Charge              0.00000

 *** GO1_GOStep3 ***

 Energy gradients wrt nuclear displacements
 ==========================================

     Atom      Cartesian (a.u./angstrom)
                 X         Y         Z
 ----------------------------------------
     1 C    -0.000880 -0.009091 -0.000060
     2 C     0.006502 -0.003891  0.010886
     3 I    -0.005185  0.002419 -0.013491
     4 O    -0.000594  0.006424  0.002947
     5 H     0.000437  0.001746 -0.000045
     6 H    -0.000279  0.002394 -0.000239
 ----------------------------------------

 dE(predicted):    -0.27336E-02, dE(actual):    -0.29868E-02, Trust radius:    0.400000, all in a.u.
 
----------------------------------------------------------------------
Geometry Convergence after Step   3       (Hartree/Angstrom,Angstrom)
----------------------------------------------------------------------
current energy                               -1.11283584 Hartree
energy change                      -0.00298684     0.00006000    F
constrained gradient max            0.01349989     0.00100000    F
constrained gradient rms            0.00544420     0.00066667    F
gradient max                        0.01349989
gradient rms                        0.00544420
cart. step max                      0.00860392     0.01000000    T
cart. step rms                      0.00490779     0.00666667    T
 

--------
Geometry
--------
Formula: C2H2IO
Atoms
  Index Symbol   x (angstrom)   y (angstrom)   z (angstrom)
      1      C     1.17828766     1.24765355    -0.12251350
      2      C     1.37222033    -0.14690313     0.12811956
      3      I     2.13386639    -0.49500869     2.20795747
      4      O     1.19239973    -1.07106158    -0.63047970
      5      H     0.83704668     1.54541269    -1.11308217
      6      H     1.35308415     1.99110715     0.64584101

Total System Charge              0.00000

 *** GO1_GOStep4 ***

 Energy gradients wrt nuclear displacements
 ==========================================

     Atom      Cartesian (a.u./angstrom)
                 X         Y         Z
 ----------------------------------------
     1 C     0.000996  0.000484 -0.000715
     2 C     0.003053 -0.004389  0.013265
     3 I    -0.003196  0.002036 -0.009744
     4 O    -0.000015 -0.000694 -0.002476
     5 H    -0.000335  0.001012 -0.000211
     6 H    -0.000503  0.001551 -0.000118
 ----------------------------------------

 dE(predicted):    -0.15307E-03, dE(actual):    -0.21135E-03, Trust radius:    0.400000, all in a.u.
 
----------------------------------------------------------------------
Geometry Convergence after Step   4       (Hartree/Angstrom,Angstrom)
----------------------------------------------------------------------
current energy                               -1.11304719 Hartree
energy change                      -0.00021135     0.00006000    F
constrained gradient max            0.01326165     0.00100000    F
constrained gradient rms            0.00425609     0.00066667    F
gradient max                        0.01326165
gradient rms                        0.00425609
cart. step max                      0.02734168     0.01000000    F
cart. step rms                      0.01108038     0.00666667    F
 

--------
Geometry
--------
Formula: C2H2IO
Atoms
  Index Symbol   x (angstrom)   y (angstrom)   z (angstrom)
      1      C     1.18502397     1.25342279    -0.12894945
      2      C     1.38442353    -0.14927234     0.11206723
      3      I     2.12213858    -0.49268570     2.22719783
      4      O     1.19611954    -1.07697342    -0.63354299
      5      H     0.80970501     1.55094832    -1.10765187
      6      H     1.36949430     1.98576034     0.64672193

Total System Charge              0.00000

 *** GO1_GOStep5 ***

 Energy gradients wrt nuclear displacements
 ==========================================

     Atom      Cartesian (a.u./angstrom)
                 X         Y         Z
 ----------------------------------------
     1 C     0.000409  0.010823 -0.001193
     2 C     0.004705 -0.013724  0.004735
     3 I    -0.001861  0.000991 -0.004035
     4 O    -0.001069  0.001173  0.000799
     5 H    -0.001155  0.000267 -0.000758
     6 H    -0.001028  0.000469  0.000452
 ----------------------------------------

 dE(predicted):    -0.14505E-03, dE(actual):    -0.12893E-03, Trust radius:    0.400000, all in a.u.
 
----------------------------------------------------------------------
Geometry Convergence after Step   5       (Hartree/Angstrom,Angstrom)
----------------------------------------------------------------------
current energy                               -1.11317612 Hartree
energy change                      -0.00012893     0.00006000    F
constrained gradient max            0.01372554     0.00100000    F
constrained gradient rms            0.00458845     0.00066667    F
gradient max                        0.01372554
gradient rms                        0.00458845
cart. step max                      0.01898892     0.01000000    F
cart. step rms                      0.00687263     0.00666667    F
 

--------
Geometry
--------
Formula: C2H2IO
Atoms
  Index Symbol   x (angstrom)   y (angstrom)   z (angstrom)
      1      C     1.17497200     1.25313274    -0.12864417
      2      C     1.36543462    -0.14484653     0.11156219
      3      I     2.12947749    -0.49296388     2.23573670
      4      O     1.20536200    -1.07512618    -0.63772298
      5      H     0.81452787     1.55144826    -1.11152302
      6      H     1.37713097     1.97955557     0.64643397

Total System Charge              0.00000

 *** GO1_GOStep6 ***

 Energy gradients wrt nuclear displacements
 ==========================================

     Atom      Cartesian (a.u./angstrom)
                 X         Y         Z
 ----------------------------------------
     1 C     0.000431  0.008841 -0.002272
     2 C    -0.002419 -0.005623  0.004264
     3 I     0.000532 -0.000231 -0.000645
     4 O     0.001670 -0.000570 -0.001268
     5 H    -0.000361 -0.000921 -0.000098
     6 H     0.000147 -0.001495  0.000019
 ----------------------------------------

 dE(predicted):    -0.11680E-03, dE(actual):    -0.98438E-04, Trust radius:    0.400000, all in a.u.
 
----------------------------------------------------------------------
Geometry Convergence after Step   6       (Hartree/Angstrom,Angstrom)
----------------------------------------------------------------------
current energy                               -1.11327455 Hartree
energy change                      -0.00009844     0.00006000    F
constrained gradient max            0.00884367     0.00100000    F
constrained gradient rms            0.00286623     0.00066667    F
gradient max                        0.00884367
gradient rms                        0.00286623
cart. step max                      0.00649703     0.01000000    T
cart. step rms                      0.00239303     0.00666667    T
 

--------
Geometry
--------
Formula: C2H2IO
Atoms
  Index Symbol   x (angstrom)   y (angstrom)   z (angstrom)
      1      C     1.17590294     1.25075391    -0.12802416
      2      C     1.37193164    -0.14301714     0.10807524
      3      I     2.12634307    -0.49071131     2.23621128
      4      O     1.20273889    -1.07534295    -0.63797359
      5      H     0.81189949     1.55106102    -1.10884855
      6      H     1.37808889     1.97845646     0.64640246

Total System Charge              0.00000

 *** GO1_GOStep7 ***

 Energy gradients wrt nuclear displacements
 ==========================================

     Atom      Cartesian (a.u./angstrom)
                 X         Y         Z
 ----------------------------------------
     1 C    -0.000028  0.004155 -0.001476
     2 C    -0.000120 -0.000537  0.003429
     3 I     0.000013 -0.000075 -0.000653
     4 O     0.000198 -0.001802 -0.001742
     5 H    -0.000123 -0.000777  0.000189
     6 H     0.000061 -0.000964  0.000253
 ----------------------------------------

 dE(predicted):    -0.33213E-04, dE(actual):    -0.45674E-04, Trust radius:    0.400000, all in a.u.
 
----------------------------------------------------------------------
Geometry Convergence after Step   7       (Hartree/Angstrom,Angstrom)
----------------------------------------------------------------------
current energy                               -1.11332023 Hartree
energy change                      -0.00004567     0.00006000    T
constrained gradient max            0.00415702     0.00100000    F
constrained gradient rms            0.00148895     0.00066667    F
gradient max                        0.00415702
gradient rms                        0.00148895
cart. step max                      0.00352040     0.01000000    T
cart. step rms                      0.00164178     0.00666667    T
 

--------
Geometry
--------
Formula: C2H2IO
Atoms
  Index Symbol   x (angstrom)   y (angstrom)   z (angstrom)
      1      C     1.17423085     1.24844656    -0.12685655
      2      C     1.37422782    -0.14302416     0.10455484
      3      I     2.12509771    -0.48817839     2.23774979
      4      O     1.20209422    -1.07553078    -0.63853970
      5      H     0.81121406     1.55231957    -1.10721301
      6      H     1.38004028     1.97716719     0.64614731

Total System Charge              0.00000

 *** GO1_GOStep8 ***

 Energy gradients wrt nuclear displacements
 ==========================================

     Atom      Cartesian (a.u./angstrom)
                 X         Y         Z
 ----------------------------------------
     1 C    -0.000567  0.000538 -0.000428
     2 C     0.000424 -0.000567  0.000148
     3 I    -0.000147  0.000094 -0.000382
     4 O    -0.000020  0.000607  0.000305
     5 H     0.000116 -0.000384  0.000074
     6 H     0.000194 -0.000288  0.000283
 ----------------------------------------

 dE(predicted):    -0.11439E-04, dE(actual):    -0.12786E-04, Trust radius:    0.400000, all in a.u.
 
---------------------------------------------------------
Geometry Convergence after Step   8       ** CONVERGED **
---------------------------------------------------------
current energy                               -1.11333302 Hartree
energy change                      -0.00001279     0.00006000    T
constrained gradient max            0.00060538     0.00100000    T
constrained gradient rms            0.00035886     0.00066667    T
gradient max                        0.00060538
gradient rms                        0.00035886
cart. step max                      0.00077677     0.01000000    T
cart. step rms                      0.00040656     0.00666667    T
 
Geometry optimization converged

Optimized geometry:

--------
Geometry
--------
Formula: C2H2IO
Atoms
  Index Symbol   x (angstrom)   y (angstrom)   z (angstrom)
      1      C     1.17423085     1.24844656    -0.12685655
      2      C     1.37422782    -0.14302416     0.10455484
      3      I     2.12509771    -0.48817839     2.23774979
      4      O     1.20209422    -1.07553078    -0.63853970
      5      H     0.81121406     1.55231957    -1.10721301
      6      H     1.38004028     1.97716719     0.64614731

Total System Charge              0.00000

Performing a single point calculation on the final geometry ...

 *** adf ***



 ===========================
 A T T A C H E D   F I L E S
 ===========================
  
 Restart/tmp/amstmp_optA_kid0.2112704350/GO1_GOStep8.rkf*** GO1_GOStep8 ***



 ===============================
 M O D E L   P A R A M E T E R S
 ===============================
  
 DENSITY FUNCTIONAL POTENTIAL (scf)
    LDA:                               Exchange only                           == Not Default ==
    Gradient Corrections:              Becke88 LYP                             == Not Default ==

 SPIN  (restricted / unrestr.)
    Molecule:                          UNrestricted                            == Not Default ==
    Fragments:                         Restricted                               

 OTHER ASPECTS
    Relativistic Corrections:          scalar (ZORA,MAPA)                       

    Nuclear Charge Density Model:      Point Charge Nuclei                      
    Core Treatment:                    Frozen Orbital(s)                        

    Hyperfine or Zeeman Interaction:   ---                                      

 Settings for Grimme D3 dispersion correction

      damping                        BJ
      s6                          1.000
      s8                          2.700
      a1                          0.430
      a2                          4.236

 Other (technical) parameters

      alpha                      14.000
      version                         4
 



 ===============
 G E O M E T R Y  ***  3D  Molecule  ***
 ===============
  

 ATOMS
 =====                            X Y Z                    CHARGE
                                (Angstrom)             Nucl     +Core       At.Mass
                       --------------------------    ----------------       -------
    1  C               1.1742    1.2484   -0.1269      6.00      6.00       12.0000
    2  C               1.3742   -0.1430    0.1046      6.00      6.00       12.0000
    3  I               2.1251   -0.4882    2.2377     53.00     53.00      126.9045
    4  O               1.2021   -1.0755   -0.6385      8.00      8.00       15.9949
    5  H               0.8112    1.5523   -1.1072      1.00      1.00        1.0078
    6  H               1.3800    1.9772    0.6461      1.00      1.00        1.0078


 FRAGMENTS
 =========                                     Atoms in this Fragment     Cart. coord.s (Angstrom)
                                               -------------------------------------------------------
    1  C                                                 1  C            1.1742    1.2484   -0.1269
    2  C                                                 2  C            1.3742   -0.1430    0.1046
    3  I                                                 3  I            2.1251   -0.4882    2.2377
    4  O                                                 4  O            1.2021   -1.0755   -0.6385
    5  H                                                 5  H            0.8112    1.5523   -1.1072
    6  H                                                 6  H            1.3800    1.9772    0.6461


 Interatomic Distance Matrix (Angstrom)
 --------------------------------------

   1)     0.000
   2)     1.425   0.000
   3)     3.084   2.288   0.000
   4)     2.380   1.205   3.077   0.000
   5)     1.089   2.159   4.133   2.698   0.000
   6)     1.082   2.188   3.028   3.317   1.892   0.000

 Min. Distance =    1.0821
 Max. Distance =    4.1326



 =====================================
 S Y M M E T R Y ,   E L E C T R O N S
 =====================================
  
 Symmetry: NOSYM

 Irreducible Representations, including subspecies
 -------------------------------------------------
 A


 Configuration of Valence Electrons
 ==================================
 ( determined in the SCF procedure )

 Total:   38 (Spin-A)  + 37 (Spin-B)

 Net Charge: 0 (Nuclei minus Electrons)
 Spin polar: 1 (Spin_A minus Spin_B electrons)

 Aufbau principle for MO occupations will be applied through SCF cycle no.     150
 Thereafter, the program will assign electrons to MOs that are spatially
 similar to the occupied MOs in a "reference" cycle ("KeepOrbitals").
 The reference cycle is always the PREVIOUS cycle: it will evolve with
 the SCF procedure.
 ***************************************************************************************************



                                      ****************************************
                                      *  B U I L D : (Fragments, Functions)  *
                                      ****************************************
  



 =======
 S F O s  ***  (Symmetrized Fragment Orbitals)  ***
 =======
  
 SFOs are linear combinations of (valence) Fragment Orbitals (FOs), such that the SFOs transform as the
 irreducible representations of the (molecular) symmetry group. Each SFO is therefore characterized by
 an irrep of the molecule and by a few (or only one) generating FOs.
 The SFOs constitute a symmetry-adapted basis for the Fock matrix. The MO eigenvector coefficients in
 this basis provide a direct interpretation of the MOs in terms of Frontier Orbital Theory.

 The SFOs are combined with auxiliary Core Functions (CFs) to ensure orthogonalization on the (frozen)
 Core Orbitals (COs). The Core-orthogonalized SFOs (CSFOs) constitute the true Fock basis.

 The FOs, and hence also the (C)SFOs are combinations of the elementary basis functions (BAS). The basis
 functions that participate in the description of the SFOs depend on the irrep. The indices of the
 involved functions are printed below for each irrep.
 (The complete list of primitive basis functions is printed in another section)

 Total nr. of (C)SFOs (summation over all irreps) :   184

 NOTE: a (C)SFO that is defined as a combination of more than one FO is usually NOT normalized.



                                       === A ===
 Nr. of SFOs :  184
 Cartesian basis functions that participate in this irrep (total number =   208) :
      1     2     3     4     5     6     9    12     7    10
     13     8    11    14    15    16    17    18    19    20
     21    22    23    24    25    26    27    28    29    30
     31    32    33    34    35    36    39    42    37    40
     43    38    41    44    45    46    47    48    49    50
     51    52    53    54    55    56    57    58    59    60
     61    62    63    64    65    66    67    68    69    70
     71    72    73    76    79    82    85    88    91    94
     97   100    74    77    80    83    86    89    92    95
     98   101    75    78    81    84    87    90    93    96
     99   102   103   109   115   121   127   133   139   104
    110   116   122   128   134   140   105   111   117   123
    129   135   141   106   112   118   124   130   136   142
    107   113   119   125   131   137   143   108   114   120
    126   132   138   144   145   146   147   148   149   150
    151   152   153   154   155   156   157   158   159   160
    163   166   161   164   167   162   165   168   169   170
    171   172   173   174   175   176   177   178   179   180
    181   182   183   184   185   186   187   188   189   190
    191   192   193   194   195   196   197   198   199   200
    201   202   203   204   205   206   207   208

    SFO  (index         Fragment          Generating    Expansion in Fragment Orbitals
  indx  incl.CFs)   Occup   Orb.Energy   FragmentType  Coeff.   Orbital     on Fragment
 --------------------------------------------------------------------------------------
     1       1      2.000     -10.066 au  C             1.00      1 S               1
                        (    -273.921 eV)
     2       2      2.000      -0.501 au  C             1.00      2 S               1
                        (     -13.620 eV)
     3       3       --         0.373 au  C             1.00      3 S               1
                        (      10.158 eV)
     4       4       --         5.405 au  C             1.00      4 S               1
                        (     147.073 eV)
     5       5       --        49.848 au  C             1.00      5 S               1
                        (    1356.422 eV)
     6       6      0.667      -0.193 au  C             1.00      1 P:x             1
                        (      -5.239 eV)
     7       7       --         0.169 au  C             1.00      2 P:x             1
                        (       4.589 eV)
     8       8       --         2.013 au  C             1.00      3 P:x             1
                        (      54.789 eV)
     9       9      0.667      -0.193 au  C             1.00      1 P:y             1
                        (      -5.239 eV)
    10      10       --         0.169 au  C             1.00      2 P:y             1
                        (       4.589 eV)
    11      11       --         2.013 au  C             1.00      3 P:y             1
                        (      54.789 eV)
    12      12      0.667      -0.193 au  C             1.00      1 P:z             1
                        (      -5.239 eV)
    13      13       --         0.169 au  C             1.00      2 P:z             1
                        (       4.589 eV)
    14      14       --         2.013 au  C             1.00      3 P:z             1
                        (      54.789 eV)
    15      15       --         1.243 au  C             1.00      1 D:z2            1
                        (      33.824 eV)
    16      16       --         1.243 au  C             1.00      1 D:x2-y2         1
                        (      33.824 eV)
    17      17       --         1.243 au  C             1.00      1 D:xy            1
                        (      33.824 eV)
    18      18       --         1.243 au  C             1.00      1 D:xz            1
                        (      33.824 eV)
    19      19       --         1.243 au  C             1.00      1 D:yz            1
                        (      33.824 eV)
    20      20       --         4.016 au  C             1.00      1 F:z3            1
                        (     109.271 eV)
    21      21       --         4.016 au  C             1.00      1 F:z             1
                        (     109.271 eV)
    22      22       --         4.016 au  C             1.00      1 F:xyz           1
                        (     109.271 eV)
    23      23       --         4.016 au  C             1.00      1 F:z2x           1
                        (     109.271 eV)
    24      24       --         4.016 au  C             1.00      1 F:z2y           1
                        (     109.271 eV)
    25      25       --         4.016 au  C             1.00      1 F:x             1
                        (     109.271 eV)
    26      26       --         4.016 au  C             1.00      1 F:y             1
                        (     109.271 eV)
    27      27      2.000     -10.066 au  C             1.00      1 S               2
                        (    -273.921 eV)
    28      28      2.000      -0.501 au  C             1.00      2 S               2
                        (     -13.620 eV)
    29      29       --         0.373 au  C             1.00      3 S               2
                        (      10.158 eV)
    30      30       --         5.405 au  C             1.00      4 S               2
                        (     147.073 eV)
    31      31       --        49.848 au  C             1.00      5 S               2
                        (    1356.422 eV)
    32      32      0.667      -0.193 au  C             1.00      1 P:x             2
                        (      -5.239 eV)
    33      33       --         0.169 au  C             1.00      2 P:x             2
                        (       4.589 eV)
    34      34       --         2.013 au  C             1.00      3 P:x             2
                        (      54.789 eV)
    35      35      0.667      -0.193 au  C             1.00      1 P:y             2
                        (      -5.239 eV)
    36      36       --         0.169 au  C             1.00      2 P:y             2
                        (       4.589 eV)
    37      37       --         2.013 au  C             1.00      3 P:y             2
                        (      54.789 eV)
    38      38      0.667      -0.193 au  C             1.00      1 P:z             2
                        (      -5.239 eV)
    39      39       --         0.169 au  C             1.00      2 P:z             2
                        (       4.589 eV)
    40      40       --         2.013 au  C             1.00      3 P:z             2
                        (      54.789 eV)
    41      41       --         1.243 au  C             1.00      1 D:z2            2
                        (      33.824 eV)
    42      42       --         1.243 au  C             1.00      1 D:x2-y2         2
                        (      33.824 eV)
    43      43       --         1.243 au  C             1.00      1 D:xy            2
                        (      33.824 eV)
    44      44       --         1.243 au  C             1.00      1 D:xz            2
                        (      33.824 eV)
    45      45       --         1.243 au  C             1.00      1 D:yz            2
                        (      33.824 eV)
    46      46       --         4.016 au  C             1.00      1 F:z3            2
                        (     109.271 eV)
    47      47       --         4.016 au  C             1.00      1 F:z             2
                        (     109.271 eV)
    48      48       --         4.016 au  C             1.00      1 F:xyz           2
                        (     109.271 eV)
    49      49       --         4.016 au  C             1.00      1 F:z2x           2
                        (     109.271 eV)
    50      50       --         4.016 au  C             1.00      1 F:z2y           2
                        (     109.271 eV)
    51      51       --         4.016 au  C             1.00      1 F:x             2
                        (     109.271 eV)
    52      52       --         4.016 au  C             1.00      1 F:y             2
                        (     109.271 eV)
    53      53      2.000   -1210.518 au  I             1.00      1 S               3
                        (  -32939.871 eV)
    54      54      2.000    -187.028 au  I             1.00      2 S               3
                        (   -5089.300 eV)
    55      55      2.000     -37.710 au  I             1.00      3 S               3
                        (   -1026.146 eV)
    56      56      2.000      -6.608 au  I             1.00      4 S               3
                        (    -179.816 eV)
    57      57      2.000      -0.633 au  I             1.00      5 S               3
                        (     -17.236 eV)
    58      58       --         0.103 au  I             1.00      6 S               3
                        (       2.811 eV)
    59      59       --         1.332 au  I             1.00      7 S               3
                        (      36.237 eV)
    60      60       --         7.466 au  I             1.00      8 S               3
                        (     203.156 eV)
    61      61       --        43.899 au  I             1.00      9 S               3
                        (    1194.562 eV)
    62      62       --       776.109 au  I             1.00     10 S               3
                        (   21119.014 eV)
    63      63       --      5072.164 au  I             1.00     11 S               3
                        (  138020.602 eV)
    64      64       --     23467.672 au  I             1.00     12 S               3
                        (  638587.846 eV)
    65      65      2.000    -167.881 au  I             1.00      1 P:x             3
                        (   -4568.269 eV)
    66      66      2.000     -31.543 au  I             1.00      2 P:x             3
                        (    -858.323 eV)
    67      67      2.000      -4.673 au  I             1.00      3 P:x             3
                        (    -127.172 eV)
    68      68      1.667      -0.254 au  I             1.00      4 P:x             3
                        (      -6.915 eV)
    69      69       --         0.091 au  I             1.00      5 P:x             3
                        (       2.464 eV)
    70      70       --         0.808 au  I             1.00      6 P:x             3
                        (      21.982 eV)
    71      71       --         4.860 au  I             1.00      7 P:x             3
                        (     132.242 eV)
    72      72       --        31.481 au  I             1.00      8 P:x             3
                        (     856.648 eV)
    73      73       --       298.368 au  I             1.00      9 P:x             3
                        (    8119.004 eV)
    74      74       --      3029.344 au  I             1.00     10 P:x             3
                        (   82432.644 eV)
    75      75      2.000    -167.881 au  I             1.00      1 P:y             3
                        (   -4568.269 eV)
    76      76      2.000     -31.543 au  I             1.00      2 P:y             3
                        (    -858.323 eV)
    77      77      2.000      -4.673 au  I             1.00      3 P:y             3
                        (    -127.172 eV)
    78      78      1.667      -0.254 au  I             1.00      4 P:y             3
                        (      -6.915 eV)
    79      79       --         0.091 au  I             1.00      5 P:y             3
                        (       2.464 eV)
    80      80       --         0.808 au  I             1.00      6 P:y             3
                        (      21.982 eV)
    81      81       --         4.860 au  I             1.00      7 P:y             3
                        (     132.242 eV)
    82      82       --        31.481 au  I             1.00      8 P:y             3
                        (     856.648 eV)
    83      83       --       298.368 au  I             1.00      9 P:y             3
                        (    8119.004 eV)
    84      84       --      3029.344 au  I             1.00     10 P:y             3
                        (   82432.644 eV)
    85      85      2.000    -167.881 au  I             1.00      1 P:z             3
                        (   -4568.269 eV)
    86      86      2.000     -31.543 au  I             1.00      2 P:z             3
                        (    -858.323 eV)
    87      87      2.000      -4.673 au  I             1.00      3 P:z             3
                        (    -127.172 eV)
    88      88      1.667      -0.254 au  I             1.00      4 P:z             3
                        (      -6.915 eV)
    89      89       --         0.091 au  I             1.00      5 P:z             3
                        (       2.464 eV)
    90      90       --         0.808 au  I             1.00      6 P:z             3
                        (      21.982 eV)
    91      91       --         4.860 au  I             1.00      7 P:z             3
                        (     132.242 eV)
    92      92       --        31.481 au  I             1.00      8 P:z             3
                        (     856.648 eV)
    93      93       --       298.368 au  I             1.00      9 P:z             3
                        (    8119.004 eV)
    94      94       --      3029.344 au  I             1.00     10 P:z             3
                        (   82432.644 eV)
    95      95      2.000     -22.252 au  I             1.00      1 D:z2            3
                        (    -605.521 eV)
    96      96      2.000      -1.840 au  I             1.00      2 D:z2            3
                        (     -50.064 eV)
    97      97       --         0.184 au  I             1.00      3 D:z2            3
                        (       5.015 eV)
    98      98       --         1.290 au  I             1.00      4 D:z2            3
                        (      35.106 eV)
    99      99       --         6.029 au  I             1.00      5 D:z2            3
                        (     164.064 eV)
   100     100       --        27.141 au  I             1.00      6 D:z2            3
                        (     738.543 eV)
   101     101       --       143.443 au  I             1.00      7 D:z2            3
                        (    3903.282 eV)
   102     102      2.000     -22.252 au  I             1.00      1 D:x2-y2         3
                        (    -605.521 eV)
   103     103      2.000      -1.840 au  I             1.00      2 D:x2-y2         3
                        (     -50.064 eV)
   104     104       --         0.184 au  I             1.00      3 D:x2-y2         3
                        (       5.015 eV)
   105     105       --         1.290 au  I             1.00      4 D:x2-y2         3
                        (      35.106 eV)
   106     106       --         6.029 au  I             1.00      5 D:x2-y2         3
                        (     164.064 eV)
   107     107       --        27.141 au  I             1.00      6 D:x2-y2         3
                        (     738.543 eV)
   108     108       --       143.443 au  I             1.00      7 D:x2-y2         3
                        (    3903.282 eV)
   109     109      2.000     -22.252 au  I             1.00      1 D:xy            3
                        (    -605.521 eV)
   110     110      2.000      -1.840 au  I             1.00      2 D:xy            3
                        (     -50.064 eV)
   111     111       --         0.184 au  I             1.00      3 D:xy            3
                        (       5.015 eV)
   112     112       --         1.290 au  I             1.00      4 D:xy            3
                        (      35.106 eV)
   113     113       --         6.029 au  I             1.00      5 D:xy            3
                        (     164.064 eV)
   114     114       --        27.141 au  I             1.00      6 D:xy            3
                        (     738.543 eV)
   115     115       --       143.443 au  I             1.00      7 D:xy            3
                        (    3903.282 eV)
   116     116      2.000     -22.252 au  I             1.00      1 D:xz            3
                        (    -605.521 eV)
   117     117      2.000      -1.840 au  I             1.00      2 D:xz            3
                        (     -50.064 eV)
   118     118       --         0.184 au  I             1.00      3 D:xz            3
                        (       5.015 eV)
   119     119       --         1.290 au  I             1.00      4 D:xz            3
                        (      35.106 eV)
   120     120       --         6.029 au  I             1.00      5 D:xz            3
                        (     164.064 eV)
   121     121       --        27.141 au  I             1.00      6 D:xz            3
                        (     738.543 eV)
   122     122       --       143.443 au  I             1.00      7 D:xz            3
                        (    3903.282 eV)
   123     123      2.000     -22.252 au  I             1.00      1 D:yz            3
                        (    -605.521 eV)
   124     124      2.000      -1.840 au  I             1.00      2 D:yz            3
                        (     -50.064 eV)
   125     125       --         0.184 au  I             1.00      3 D:yz            3
                        (       5.015 eV)
   126     126       --         1.290 au  I             1.00      4 D:yz            3
                        (      35.106 eV)
   127     127       --         6.029 au  I             1.00      5 D:yz            3
                        (     164.064 eV)
   128     128       --        27.141 au  I             1.00      6 D:yz            3
                        (     738.543 eV)
   129     129       --       143.443 au  I             1.00      7 D:yz            3
                        (    3903.282 eV)
   130     130       --         0.688 au  I             1.00      1 F:z3            3
                        (      18.722 eV)
   131     131       --         0.688 au  I             1.00      1 F:z             3
                        (      18.722 eV)
   132     132       --         0.688 au  I             1.00      1 F:xyz           3
                        (      18.722 eV)
   133     133       --         0.688 au  I             1.00      1 F:z2x           3
                        (      18.722 eV)
   134     134       --         0.688 au  I             1.00      1 F:z2y           3
                        (      18.722 eV)
   135     135       --         0.688 au  I             1.00      1 F:x             3
                        (      18.722 eV)
   136     136       --         0.688 au  I             1.00      1 F:y             3
                        (      18.722 eV)
   137     137      2.000     -18.941 au  O             1.00      1 S               4
                        (    -515.403 eV)
   138     138      2.000      -0.876 au  O             1.00      2 S               4
                        (     -23.838 eV)
   139     139       --         0.791 au  O             1.00      3 S               4
                        (      21.524 eV)
   140     140       --        13.422 au  O             1.00      4 S               4
                        (     365.226 eV)
   141     141       --       121.561 au  O             1.00      5 S               4
                        (    3307.838 eV)
   142     142      1.333      -0.331 au  O             1.00      1 P:x             4
                        (      -9.020 eV)
   143     143       --         0.347 au  O             1.00      2 P:x             4
                        (       9.437 eV)
   144     144       --         3.820 au  O             1.00      3 P:x             4
                        (     103.939 eV)
   145     145      1.333      -0.331 au  O             1.00      1 P:y             4
                        (      -9.020 eV)
   146     146       --         0.347 au  O             1.00      2 P:y             4
                        (       9.437 eV)
   147     147       --         3.820 au  O             1.00      3 P:y             4
                        (     103.939 eV)
   148     148      1.333      -0.331 au  O             1.00      1 P:z             4
                        (      -9.020 eV)
   149     149       --         0.347 au  O             1.00      2 P:z             4
                        (       9.437 eV)
   150     150       --         3.820 au  O             1.00      3 P:z             4
                        (     103.939 eV)
   151     151       --         1.071 au  O             1.00      1 D:z2            4
                        (      29.134 eV)
   152     152       --         1.071 au  O             1.00      1 D:x2-y2         4
                        (      29.134 eV)
   153     153       --         1.071 au  O             1.00      1 D:xy            4
                        (      29.134 eV)
   154     154       --         1.071 au  O             1.00      1 D:xz            4
                        (      29.134 eV)
   155     155       --         1.071 au  O             1.00      1 D:yz            4
                        (      29.134 eV)
   156     156       --         3.359 au  O             1.00      1 F:z3            4
                        (      91.410 eV)
   157     157       --         3.359 au  O             1.00      1 F:z             4
                        (      91.410 eV)
   158     158       --         3.359 au  O             1.00      1 F:xyz           4
                        (      91.410 eV)
   159     159       --         3.359 au  O             1.00      1 F:z2x           4
                        (      91.410 eV)
   160     160       --         3.359 au  O             1.00      1 F:z2y           4
                        (      91.410 eV)
   161     161       --         3.359 au  O             1.00      1 F:x             4
                        (      91.410 eV)
   162     162       --         3.359 au  O             1.00      1 F:y             4
                        (      91.410 eV)
   163     163      1.000      -0.240 au  H             1.00      1 S               5
                        (      -6.532 eV)
   164     164       --         0.088 au  H             1.00      2 S               5
                        (       2.394 eV)
   165     165       --         1.502 au  H             1.00      3 S               5
                        (      40.869 eV)
   166     166       --         0.406 au  H             1.00      1 P:x             5
                        (      11.051 eV)
   167     167       --         0.406 au  H             1.00      1 P:y             5
                        (      11.051 eV)
   168     168       --         0.406 au  H             1.00      1 P:z             5
                        (      11.051 eV)
   169     169       --         2.569 au  H             1.00      1 D:z2            5
                        (      69.917 eV)
   170     170       --         2.569 au  H             1.00      1 D:x2-y2         5
                        (      69.917 eV)
   171     171       --         2.569 au  H             1.00      1 D:xy            5
                        (      69.917 eV)
   172     172       --         2.569 au  H             1.00      1 D:xz            5
                        (      69.917 eV)
   173     173       --         2.569 au  H             1.00      1 D:yz            5
                        (      69.917 eV)
   174     174      1.000      -0.240 au  H             1.00      1 S               6
                        (      -6.532 eV)
   175     175       --         0.088 au  H             1.00      2 S               6
                        (       2.394 eV)
   176     176       --         1.502 au  H             1.00      3 S               6
                        (      40.869 eV)
   177     177       --         0.406 au  H             1.00      1 P:x             6
                        (      11.051 eV)
   178     178       --         0.406 au  H             1.00      1 P:y             6
                        (      11.051 eV)
   179     179       --         0.406 au  H             1.00      1 P:z             6
                        (      11.051 eV)
   180     180       --         2.569 au  H             1.00      1 D:z2            6
                        (      69.917 eV)
   181     181       --         2.569 au  H             1.00      1 D:x2-y2         6
                        (      69.917 eV)
   182     182       --         2.569 au  H             1.00      1 D:xy            6
                        (      69.917 eV)
   183     183       --         2.569 au  H             1.00      1 D:xz            6
                        (      69.917 eV)
   184     184       --         2.569 au  H             1.00      1 D:yz            6
                        (      69.917 eV)



 ================================
 (Slater-type)  F U N C T I O N S  ***  (Basis and Fit)  ***
 ================================
  

 Atom Type    1  (C)
 ==============

 Valence Basis Sets:  10
 -----------------------
   1 S    7.680000
   1 S    5.000000
   2 S    1.280000
   2 S    2.100000
   2 S    4.600000
   2 P    0.820000
   2 P    1.480000
   2 P    2.940000
   3 D    2.200000
   4 F    3.300000

 Atom Type    2  (I)
 ==============

 Valence Basis Sets:  30
 -----------------------
   1 S  381.000000
   1 S   95.600000
   1 S   53.900000
   2 S   61.350000
   2 S   23.200000
   3 S   12.250000
   3 S    8.500000
   4 S    8.550000
   4 S    5.450000
   5 S    3.800000
   5 S    2.500000
   5 S    1.690000
   2 P   95.600000
   2 P   35.200000
   2 P   22.300000
   3 P   13.200000
   3 P    9.900000
   4 P    7.000000
   4 P    4.600000
   5 P    3.100000
   5 P    1.900000
   5 P    1.190000
   3 D   21.700000
   3 D   13.150000
   3 D    9.000000
   4 D    6.800000
   4 D    4.350000
   4 D    2.850000
   5 D    1.900000
   4 F    2.000000

 Atom Type    3  (O)
 ==============

 Valence Basis Sets:  10
 -----------------------
   1 S    9.800000
   1 S    6.800000
   2 S    7.580000
   2 S    2.880000
   2 S    1.720000
   2 P    4.080000
   2 P    2.080000
   2 P    1.120000
   3 D    2.000000
   4 F    3.000000

 Atom Type    4  (H)
 ==============

 Valence Basis Sets:   5
 -----------------------
   1 S    0.690000
   1 S    0.920000
   1 S    1.580000
   2 P    1.250000
   3 D    2.500000


 BAS: List of all Elementary Cartesian Basis Functions
 =====================================================

 The numbering in the list below (to the right of the function characteristics) is referred
 to in print-outs of MO eigenvectors and Mulliken populations in the BAS representation
 (as contrasted to the SFO representation).

 Notes:
 1. The functions are characterized by a polynomial prefactor (powers of x,y,z and r) and
    an exponential decay factor alpha.
 2. Since the basis sets are specific for an atom TYPE, the individual functions occur on
    all atoms of that type.
 3. The word 'Core' in the left margin signals that it is a Core Function (CF) : not a
    degree of freedom in the valence set, but only used to ensure orthogonalization of
    the other valence basis functions on the frozen Core Orbitals.


 (power of) X  Y  Z  R     Alpha  on Atom
            ==========     =====     ==========

 C                                    1    2
                                  ---------------------------------------------------------------------------
            0  0  0  0     7.680      1   31
            0  0  0  0     5.000      2   32
            0  0  0  1     1.280      3   33
            0  0  0  1     2.100      4   34
            0  0  0  1     4.600      5   35
            1  0  0  0     0.820      6   36
            0  1  0  0     0.820      7   37
            0  0  1  0     0.820      8   38
            1  0  0  0     1.480      9   39
            0  1  0  0     1.480     10   40
            0  0  1  0     1.480     11   41
            1  0  0  0     2.940     12   42
            0  1  0  0     2.940     13   43
            0  0  1  0     2.940     14   44
            2  0  0  0     2.200     15   45
            1  1  0  0     2.200     16   46
            1  0  1  0     2.200     17   47
            0  2  0  0     2.200     18   48
            0  1  1  0     2.200     19   49
            0  0  2  0     2.200     20   50
            3  0  0  0     3.300     21   51
            2  1  0  0     3.300     22   52
            2  0  1  0     3.300     23   53
            1  2  0  0     3.300     24   54
            1  1  1  0     3.300     25   55
            1  0  2  0     3.300     26   56
            0  3  0  0     3.300     27   57
            0  2  1  0     3.300     28   58
            0  1  2  0     3.300     29   59
            0  0  3  0     3.300     30   60

 I                                    3
                                  ---------------------------------------------------------------------------
            0  0  0  0   381.000     61
            0  0  0  0    95.600     62
            0  0  0  0    53.900     63
            0  0  0  1    61.350     64
            0  0  0  1    23.200     65
            0  0  0  2    12.250     66
            0  0  0  2     8.500     67
            0  0  0  3     8.550     68
            0  0  0  3     5.450     69
            0  0  0  4     3.800     70
            0  0  0  4     2.500     71
            0  0  0  4     1.690     72
            1  0  0  0    95.600     73
            0  1  0  0    95.600     74
            0  0  1  0    95.600     75
            1  0  0  0    35.200     76
            0  1  0  0    35.200     77
            0  0  1  0    35.200     78
            1  0  0  0    22.300     79
            0  1  0  0    22.300     80
            0  0  1  0    22.300     81
            1  0  0  1    13.200     82
            0  1  0  1    13.200     83
            0  0  1  1    13.200     84
            1  0  0  1     9.900     85
            0  1  0  1     9.900     86
            0  0  1  1     9.900     87
            1  0  0  2     7.000     88
            0  1  0  2     7.000     89
            0  0  1  2     7.000     90
            1  0  0  2     4.600     91
            0  1  0  2     4.600     92
            0  0  1  2     4.600     93
            1  0  0  3     3.100     94
            0  1  0  3     3.100     95
            0  0  1  3     3.100     96
            1  0  0  3     1.900     97
            0  1  0  3     1.900     98
            0  0  1  3     1.900     99
            1  0  0  3     1.190    100
            0  1  0  3     1.190    101
            0  0  1  3     1.190    102
            2  0  0  0    21.700    103
            1  1  0  0    21.700    104
            1  0  1  0    21.700    105
            0  2  0  0    21.700    106
            0  1  1  0    21.700    107
            0  0  2  0    21.700    108
            2  0  0  0    13.150    109
            1  1  0  0    13.150    110
            1  0  1  0    13.150    111
            0  2  0  0    13.150    112
            0  1  1  0    13.150    113
            0  0  2  0    13.150    114
            2  0  0  0     9.000    115
            1  1  0  0     9.000    116
            1  0  1  0     9.000    117
            0  2  0  0     9.000    118
            0  1  1  0     9.000    119
            0  0  2  0     9.000    120
            2  0  0  1     6.800    121
            1  1  0  1     6.800    122
            1  0  1  1     6.800    123
            0  2  0  1     6.800    124
            0  1  1  1     6.800    125
            0  0  2  1     6.800    126
            2  0  0  1     4.350    127
            1  1  0  1     4.350    128
            1  0  1  1     4.350    129
            0  2  0  1     4.350    130
            0  1  1  1     4.350    131
            0  0  2  1     4.350    132
            2  0  0  1     2.850    133
            1  1  0  1     2.850    134
            1  0  1  1     2.850    135
            0  2  0  1     2.850    136
            0  1  1  1     2.850    137
            0  0  2  1     2.850    138
            2  0  0  2     1.900    139
            1  1  0  2     1.900    140
            1  0  1  2     1.900    141
            0  2  0  2     1.900    142
            0  1  1  2     1.900    143
            0  0  2  2     1.900    144
            3  0  0  0     2.000    145
            2  1  0  0     2.000    146
            2  0  1  0     2.000    147
            1  2  0  0     2.000    148
            1  1  1  0     2.000    149
            1  0  2  0     2.000    150
            0  3  0  0     2.000    151
            0  2  1  0     2.000    152
            0  1  2  0     2.000    153
            0  0  3  0     2.000    154

 O                                    4
                                  ---------------------------------------------------------------------------
            0  0  0  0     9.800    155
            0  0  0  0     6.800    156
            0  0  0  1     7.580    157
            0  0  0  1     2.880    158
            0  0  0  1     1.720    159
            1  0  0  0     4.080    160
            0  1  0  0     4.080    161
            0  0  1  0     4.080    162
            1  0  0  0     2.080    163
            0  1  0  0     2.080    164
            0  0  1  0     2.080    165
            1  0  0  0     1.120    166
            0  1  0  0     1.120    167
            0  0  1  0     1.120    168
            2  0  0  0     2.000    169
            1  1  0  0     2.000    170
            1  0  1  0     2.000    171
            0  2  0  0     2.000    172
            0  1  1  0     2.000    173
            0  0  2  0     2.000    174
            3  0  0  0     3.000    175
            2  1  0  0     3.000    176
            2  0  1  0     3.000    177
            1  2  0  0     3.000    178
            1  1  1  0     3.000    179
            1  0  2  0     3.000    180
            0  3  0  0     3.000    181
            0  2  1  0     3.000    182
            0  1  2  0     3.000    183
            0  0  3  0     3.000    184

 H                                    5    6
                                  ---------------------------------------------------------------------------
            0  0  0  0     0.690    185  197
            0  0  0  0     0.920    186  198
            0  0  0  0     1.580    187  199
            1  0  0  0     1.250    188  200
            0  1  0  0     1.250    189  201
            0  0  1  0     1.250    190  202
            2  0  0  0     2.500    191  203
            1  1  0  0     2.500    192  204
            1  0  1  0     2.500    193  205
            0  2  0  0     2.500    194  206
            0  1  1  0     2.500    195  207
            0  0  2  0     2.500    196  208

 Total number of charge fitting functions (nprimf)       629
 Total number of Cartesian basis functions (naos)        208
 Total number of Cartesian core functions  (ncos)          0

 ***************************************************************************************************



                                              ***********************
                                              *  T E C H N I C A L  *
                                              ***********************
  



 =============================================================
 P A R A L L E L I Z A T I O N  and  V E C T O R I Z A T I O N
 =============================================================
  
 Nr of parallel processes:                                1
 Maximum vector length in NumInt loops:                 128



 =====================
 S C F   U P D A T E S
 =====================
  
 Max. nr. of cycles:                               300
 Convergence criterion:                              0.0000010000
   secondary criterion:                              0.0010000000

 Mix parameter (when DIIS does not apply):           0.0500000000
 Mixed ADIIS+SDIIS will be used                  
    Max number of expansion vectors:                10
    Pure ADIIS when Max([F,P]) is above              0.1000000000
    Pure SDIIS when Max([F,P]) is below              0.0010000000
 Automatic ElectronSmearing (in case of problematic SCF convergence) disabled



 =================
 P R E C I S I O N  ***  (General: NumInt, NeglectFunctionTails, ...)  ***
 =================
  

 NumInt:           Target precision:                 6.0000000000
 -------           Initial precision:                6.0000000000
                   Min. precision (optimization):    6.0000000000

 Neglect Functions:          Basis functions:        0.1000000000E-07
 ------------------          Fit functions:          0.1000000000E-07



 ===========================
 L I N E A R   S C A L I N G
 ===========================
  

 Cut-off radii density fit:                        0.1000000000E-09
 Overlap cut-off criterion AO matrix elements:     0.1000000000E-07
 Cut-offs for Coulomb potential and fitted density:0.1000000000E-09
 Cut-off criterion for Coulomb multipole terms:    0.1000000000E-09
 Progressive Convergence parameter:                 0.000000000    

 Number of elements of the density matrix on this node (used, total):     21736     21736



 ===========================================
 Numerical Integration : Fuzzy Cells (Becke)
 ===========================================
  
 Becke grid quality: GOOD           
  
 Lebedev angular grid order:             min:  11 max:  31
 Nr. of radial points:                   min:  54 max: 149

 Total nr. of points:      94770
 Nr. of blocks:              741
 Block length:               128
 Nr. of dummy points:         78


 Test of Precision of the Numerical Integration Grid
 ===================================================

 Integral of the Total Core Density:                   0.00000000000000



 ========================
 Density Fitting (zlmFit)
 ========================
  
 ZlmFit Fit Quality: GOOD           
  
 Max L-expansion:                        min:   8 max:   9
 Nr. of radial interpolation points:     min:  78 max: 252



 =====
 S C F  ***  ScaSCF  ***
 =====
  
 Initial density matrix is taken from previous geometry

 CYCLE    1
  ***********************************************************
  ** : orbital data taken from :/tmp/amstmp_optA_kid0.2112704350/GO1_GOStep8.rkf
  ***********************************************************
 SCF Error: norm([F,P])=      0.000000666065, max([F,P])=      0.000000053767
 ***** SPIN 1 *****
 orbitals (Q,E):
 ---------------
 A :29...48          ( 1.00    -0.6323)  ( 1.00    -0.5099)  ( 1.00    -0.4527)  ( 1.00    -0.4330)
                     ( 1.00    -0.4037)  ( 1.00    -0.3712)  ( 1.00    -0.2610)  ( 1.00    -0.2552)
                     ( 1.00    -0.2367)  ( 1.00    -0.2328)  ( 0.00    -0.0854)  ( 0.00    -0.0516)
                     ( 0.00    -0.0065)  ( 0.00     0.0351)  ( 0.00     0.0686)  ( 0.00     0.0860)
                     ( 0.00     0.0924)  ( 0.00     0.1081)  ( 0.00     0.1334)  ( 0.00     0.1412)
 ***** SPIN 2 *****
 orbitals (Q,E):
 ---------------
 A :28...47          ( 1.00    -0.7020)  ( 1.00    -0.6277)  ( 1.00    -0.5022)  ( 1.00    -0.4475)
                     ( 1.00    -0.4277)  ( 1.00    -0.3887)  ( 1.00    -0.3683)  ( 1.00    -0.2512)
                     ( 1.00    -0.2405)  ( 1.00    -0.2314)  ( 0.00    -0.1993)  ( 0.00    -0.0838)
                     ( 0.00    -0.0325)  ( 0.00    -0.0033)  ( 0.00     0.0362)  ( 0.00     0.0701)
                     ( 0.00     0.0868)  ( 0.00     0.0964)  ( 0.00     0.1087)  ( 0.00     0.1346)
  
 Spin polar: 1 (Spin_A minus Spin_B electrons)

 CYCLE    2
   MIX coefficients:  0.9500  0.0500
 SCF Error: norm([F,P])=      0.000001849135, max([F,P])=      0.000000209456
 ***** SPIN 1 *****
 orbitals (Q,E):
 ---------------
 A :29...39          ( 1.00    -0.6323)  ( 1.00    -0.5099)  ( 1.00    -0.4527)  ( 1.00    -0.4330)
                     ( 1.00    -0.4037)  ( 1.00    -0.3712)  ( 1.00    -0.2610)  ( 1.00    -0.2552)
                     ( 1.00    -0.2367)  ( 1.00    -0.2328)  ( 0.00    -0.0854)
 ***** SPIN 2 *****
 orbitals (Q,E):
 ---------------
 A :28...38          ( 1.00    -0.7020)  ( 1.00    -0.6277)  ( 1.00    -0.5022)  ( 1.00    -0.4475)
                     ( 1.00    -0.4277)  ( 1.00    -0.3887)  ( 1.00    -0.3683)  ( 1.00    -0.2512)
                     ( 1.00    -0.2405)  ( 1.00    -0.2314)  ( 0.00    -0.1993)
  
 Spin polar: 1 (Spin_A minus Spin_B electrons)

 SCF CONVERGED

 CYCLE    3
 ***************************************************************************************************



                                                *******************
                                                *  R E S U L T S  *
                                                *******************
  
 *** Using FIT density in Focky
   MIX coefficients:  0.9500  0.0500
 SCF Error: norm([F,P])=      0.000001358790, max([F,P])=      0.000000153555


                                   ***** SPIN 1 *****

 Scaled ZORA Orbital Energies, per Irrep and Spin:
 =================================================
                        Occup              E (au)              E (eV)       Diff (eV) with prev. cycle
                        -----      --------------------        ------       --------------------------
 A
              29        1.000     -0.63229428397340E+00       -17.206               1.12E-05
              30        1.000     -0.50994741519447E+00       -13.876              -1.02E-05
              31        1.000     -0.45274622381159E+00       -12.320              -8.61E-06
              32        1.000     -0.43296561206695E+00       -11.782              -1.48E-05
              33        1.000     -0.40374481273433E+00       -10.986              -1.37E-05
              34        1.000     -0.37123912846411E+00       -10.102              -8.25E-06
              35        1.000     -0.26098965468197E+00        -7.102              -8.65E-06
              36        1.000     -0.25523585870866E+00        -6.945              -2.85E-06
              37        1.000     -0.23669307834730E+00        -6.441               7.76E-06
              38        1.000     -0.23278793915729E+00        -6.334               1.04E-05
              39        0.000     -0.85425257283876E-01        -2.325
              40        0.000     -0.51628110867491E-01        -1.405
              41        0.000     -0.64557951251800E-02        -0.176
              42        0.000      0.35054874484348E-01         0.954
              43        0.000      0.68554423948080E-01         1.865
              44        0.000      0.86010445078653E-01         2.340
              45        0.000      0.92403125452537E-01         2.514
              46        0.000      0.10809499915194E+00         2.941
              47        0.000      0.13342037156093E+00         3.631
              48        0.000      0.14115778529930E+00         3.841
  
 HOMO :       38 A                -0.23278793915729E+00
 LUMO :       39 A                -0.85425257283876E-01
  


                                   ***** SPIN 2 *****

 Scaled ZORA Orbital Energies, per Irrep and Spin:
 =================================================
                        Occup              E (au)              E (eV)       Diff (eV) with prev. cycle
                        -----      --------------------        ------       --------------------------
 A
              28        1.000     -0.70197649020871E+00       -19.102              -9.89E-06
              29        1.000     -0.62773215016498E+00       -17.081               9.99E-06
              30        1.000     -0.50224935959593E+00       -13.667              -9.80E-06
              31        1.000     -0.44751563356824E+00       -12.178              -8.30E-06
              32        1.000     -0.42767662987423E+00       -11.638              -1.47E-05
              33        1.000     -0.38865852366752E+00       -10.576              -1.27E-05
              34        1.000     -0.36833953746714E+00       -10.023              -8.10E-06
              35        1.000     -0.25119406031004E+00        -6.835              -2.72E-06
              36        1.000     -0.24053492153975E+00        -6.545               7.82E-06
              37        1.000     -0.23138541689354E+00        -6.296               9.79E-06
              38        0.000     -0.19930751401761E+00        -5.423
              39        0.000     -0.83758064951322E-01        -2.279
              40        0.000     -0.32454853143239E-01        -0.883
              41        0.000     -0.33264669644806E-02        -0.091
              42        0.000      0.36153585333879E-01         0.984
              43        0.000      0.70112261238404E-01         1.908
              44        0.000      0.86774826025613E-01         2.361
              45        0.000      0.96416289531080E-01         2.624
              46        0.000      0.10866237054265E+00         2.957
              47        0.000      0.13459041339162E+00         3.662
  
 HOMO :       37 A                -0.23138541689354E+00
 LUMO :       38 A                -0.19930751401761E+00
  


 Orbital Energies, both Spins
 ========================================

 Irrep        no.  (spin)   Occup              E (au)                E (eV)
 ---------------------------------------------------------------------------
 A             1     A       1.00       -0.12104951649321E+04    -32939.2494
 A             1      B      1.00       -0.12104950223624E+04    -32939.2455
 A             2     A       1.00       -0.18700518198498E+03     -5088.6699
 A             2      B      1.00       -0.18700511299174E+03     -5088.6680
 A             3     A       1.00       -0.16785867512810E+03     -4567.6670
 A             3      B      1.00       -0.16785863157825E+03     -4567.6658
 A             4     A       1.00       -0.16785744809212E+03     -4567.6336
 A             4      B      1.00       -0.16785718488504E+03     -4567.6264
 A             5     A       1.00       -0.16785683489281E+03     -4567.6169
 A             5      B      1.00       -0.16785677888735E+03     -4567.6154
 A             6     A       1.00       -0.37687297856645E+02     -1025.5236
 A             6      B      1.00       -0.37687170096792E+02     -1025.5201
 A             7     A       1.00       -0.31522420199028E+02      -857.7687
 A             7      B      1.00       -0.31522362924048E+02      -857.7671
 A             8     A       1.00       -0.31519023861532E+02      -857.6763
 A             8      B      1.00       -0.31518712636919E+02      -857.6678
 A             9     A       1.00       -0.31517615505543E+02      -857.6380
 A             9      B      1.00       -0.31517545252616E+02      -857.6360
 A            10     A       1.00       -0.22231266508922E+02      -604.9435
 A            10      B      1.00       -0.22231161627208E+02      -604.9407
 A            11     A       1.00       -0.22230765637116E+02      -604.9299
 A            11      B      1.00       -0.22230572204573E+02      -604.9246
 A            12     A       1.00       -0.22229818634135E+02      -604.9041
 A            12      B      1.00       -0.22229793320495E+02      -604.9035
 A            13     A       1.00       -0.22227544672037E+02      -604.8423
 A            14     A       1.00       -0.22227462379273E+02      -604.8400
 A            13      B      1.00       -0.22227342743288E+02      -604.8368
 A            14      B      1.00       -0.22227288220653E+02      -604.8353
 A            15     A       1.00       -0.18835969650885E+02      -512.5528
 A            15      B      1.00       -0.18831590220195E+02      -512.4336
 A            16      B      1.00       -0.10052353261257E+02      -273.5384
 A            16     A       1.00       -0.10051663964569E+02      -273.5197
 A            17     A       1.00       -0.99904868582488E+01      -271.8550
 A            17      B      1.00       -0.99805548588565E+01      -271.5847
 A            18     A       1.00       -0.65859828562953E+01      -179.2137
 A            18      B      1.00       -0.65856779557827E+01      -179.2054
 A            19     A       1.00       -0.46572170533503E+01      -126.7293
 A            19      B      1.00       -0.46571069520880E+01      -126.7263
 A            20     A       1.00       -0.46501068061778E+01      -126.5358
 A            20      B      1.00       -0.46494362398866E+01      -126.5176
 A            21     A       1.00       -0.46470315327225E+01      -126.4522
 A            21      B      1.00       -0.46468906834238E+01      -126.4483
 A            22     A       1.00       -0.18233838016184E+01       -49.6168
 A            22      B      1.00       -0.18230363647470E+01       -49.6073
 A            23     A       1.00       -0.18218648623861E+01       -49.5755
 A            23      B      1.00       -0.18212332094024E+01       -49.5583
 A            24     A       1.00       -0.18194097374923E+01       -49.5087
 A            24      B      1.00       -0.18193485809518E+01       -49.5070
 A            25     A       1.00       -0.18135128341632E+01       -49.3482
 A            26     A       1.00       -0.18133132532699E+01       -49.3428
 A            25      B      1.00       -0.18128333883293E+01       -49.3297
 A            26      B      1.00       -0.18127205016793E+01       -49.3266
 A            27     A       1.00       -0.10021341398846E+01       -27.2695
 A            27      B      1.00       -0.99516654297141E+00       -27.0799
 A            28     A       1.00       -0.72091607839793E+00       -19.6171
 A            28      B      1.00       -0.70197649020871E+00       -19.1018
 A            29     A       1.00       -0.63229428397340E+00       -17.2056
 A            29      B      1.00       -0.62773215016498E+00       -17.0815
 A            30     A       1.00       -0.50994741519447E+00       -13.8764
 A            30      B      1.00       -0.50224935959593E+00       -13.6669
 A            31     A       1.00       -0.45274622381159E+00       -12.3199
 A            31      B      1.00       -0.44751563356824E+00       -12.1775
 A            32     A       1.00       -0.43296561206695E+00       -11.7816
 A            32      B      1.00       -0.42767662987423E+00       -11.6377
 A            33     A       1.00       -0.40374481273433E+00       -10.9865
 A            33      B      1.00       -0.38865852366752E+00       -10.5759
 A            34     A       1.00       -0.37123912846411E+00       -10.1019
 A            34      B      1.00       -0.36833953746714E+00       -10.0230
 A            35     A       1.00       -0.26098965468197E+00        -7.1019
 A            36     A       1.00       -0.25523585870866E+00        -6.9453
 A            35      B      1.00       -0.25119406031004E+00        -6.8353
 A            36      B      1.00       -0.24053492153975E+00        -6.5453
 A            37     A       1.00       -0.23669307834730E+00        -6.4407
 A            38     A       1.00       -0.23278793915729E+00        -6.3345
 A            37      B      1.00       -0.23138541689354E+00        -6.2963
 A            38      B      0.00       -0.19930751401761E+00        -5.4234
 A            39     A       0.00       -0.85425257283876E-01        -2.3245
 A            39      B      0.00       -0.83758064951322E-01        -2.2792
 A            40     A       0.00       -0.51628110867491E-01        -1.4049
 A            40      B      0.00       -0.32454853143239E-01        -0.8831
 A            41     A       0.00       -0.64557951251800E-02        -0.1757
 A            41      B      0.00       -0.33264669644806E-02        -0.0905
 A            42     A       0.00        0.35054874484348E-01         0.9539
 A            42      B      0.00        0.36153585333879E-01         0.9838
 A            43     A       0.00        0.68554423948080E-01         1.8655
 A            43      B      0.00        0.70112261238404E-01         1.9079
 A            44     A       0.00        0.86010445078653E-01         2.3405
 A            44      B      0.00        0.86774826025613E-01         2.3613
 A            45     A       0.00        0.92403125452537E-01         2.5144
 A            45      B      0.00        0.96416289531080E-01         2.6236
 A            46     A       0.00        0.10809499915194E+00         2.9414
 A            46      B      0.00        0.10866237054265E+00         2.9569
 A            47     A       0.00        0.13342037156093E+00         3.6306
 A            47      B      0.00        0.13459041339162E+00         3.6624
 A            48     A       0.00        0.14115778529930E+00         3.8411
 A            49     A       0.00        0.14615453675302E+00         3.9771
 A            48      B      0.00        0.15098100274479E+00         4.1084
 A            49      B      0.00        0.15342910810007E+00         4.1750
 A            50     A       0.00        0.18444894170928E+00         5.0191
 A            50      B      0.00        0.18894514870778E+00         5.1415
 A            51     A       0.00        0.19088312556671E+00         5.1942
 A            51      B      0.00        0.19399100885810E+00         5.2788
 A            52     A       0.00        0.20800192916909E+00         5.6600
 A            52      B      0.00        0.22036507865544E+00         5.9964
 A            53     A       0.00        0.22559548499332E+00         6.1388
 A            53      B      0.00        0.24016529799188E+00         6.5352
 A            54     A       0.00        0.25834984409369E+00         7.0301
 A            54      B      0.00        0.26158725883964E+00         7.1182
 A            55     A       0.00        0.28732158232434E+00         7.8184
 A            56     A       0.00        0.28991224317860E+00         7.8889
[...]
                                    2.05%     3 D:xz            5.015  0.00     3 I
                                    1.74%     1 P:x            11.051  0.00     5 H
                                    1.65%     4 P:x            -6.915  1.67     3 I
                                    1.32%     1 P:x            11.051  0.00     6 H
      -0.091  0.00    41 A         51.18%     2 S               2.394  0.00     6 H
                                   34.79%     1 S              -6.532  1.00     6 H
                                   33.24%     2 S               2.394  0.00     5 H
                                   14.56%     1 S              -6.532  1.00     5 H
                                  -11.75%     2 P:y             4.589  0.00     1 C
                                   -6.88%     3 S              10.158  0.00     1 C
                                   -6.10%     6 S               2.811  0.00     3 I
                                   -4.13%     2 P:y             4.589  0.00     2 C
                                   -2.77%     3 S              10.158  0.00     2 C
                                    2.72%     1 P:y            -5.239  0.67     1 C
                                   -2.26%     3 S              40.869  0.00     6 H
                                   -2.12%     5 P:z             2.464  0.00     3 I
                                   -2.07%     2 S             -13.620  2.00     2 C
                                    1.99%     2 S             -13.620  2.00     1 C
                                   -1.58%     1 P:z            -5.239  0.67     2 C
                                    1.23%     3 D:z2            5.015  0.00     3 I
       0.984  0.00    42 A        -46.54%     2 P:z             4.589  0.00     1 C
                                   41.30%     1 S              -6.532  1.00     5 H
                                   35.54%     2 S               2.394  0.00     5 H
                                   25.83%     1 S              -6.532  1.00     6 H
                                   15.25%     2 S               2.394  0.00     6 H
                                    9.85%     2 P:z             4.589  0.00     2 C
                                    8.24%     5 P:z             2.464  0.00     3 I
                                   -4.64%     2 P:x             4.589  0.00     1 C
                                    4.03%     1 P:z            -5.239  0.67     1 C
                                    3.85%     1 P:z            -5.239  0.67     2 C
                                   -3.50%     6 S               2.811  0.00     3 I
                                    2.39%     3 S              40.869  0.00     5 H
                                    2.31%     3 S              40.869  0.00     6 H
                                    2.01%     1 P:y            -5.239  0.67     2 C
                                    1.42%     2 P:x             4.589  0.00     2 C
                                   -1.41%     2 P:y             4.589  0.00     1 C
                                   -1.19%     3 S              10.158  0.00     1 C
                                    1.14%     1 P:z            11.051  0.00     5 H
                                    1.14%     3 P:z            54.789  0.00     1 C
                                   -1.06%     2 P:z             9.437  0.00     4 O
       1.908  0.00    43 A         56.01%     2 P:y             4.589  0.00     1 C
                                   16.85%     1 P:y            -5.239  0.67     1 C
                                   16.03%     2 P:y             4.589  0.00     2 C
                                   12.31%     5 P:y             2.464  0.00     3 I
                                  -11.37%     3 S              10.158  0.00     2 C
                                   11.33%     5 P:z             2.464  0.00     3 I
                                   10.76%     1 P:y            -5.239  0.67     2 C
                                   -4.28%     3 S              10.158  0.00     1 C
                                   -4.15%     2 S               2.394  0.00     5 H
                                   -3.96%     2 P:z             4.589  0.00     1 C
                                    2.83%     2 S             -13.620  2.00     1 C
                                    2.27%     1 P:z            -5.239  0.67     1 C
                                    2.23%     5 P:x             2.464  0.00     3 I
                                   -1.92%     6 S               2.811  0.00     3 I
                                   -1.87%     3 P:y            54.789  0.00     2 C
                                   -1.67%     1 S              -6.532  1.00     6 H
                                   -1.62%     3 P:y            54.789  0.00     1 C
                                   -1.41%     4 P:z            -6.915  1.67     3 I
                                   -1.29%     1 S              -6.532  1.00     5 H
                                    1.05%     2 P:z             4.589  0.00     2 C
       2.361  0.00    44 A         44.03%     5 P:z             2.464  0.00     3 I
                                   13.84%     2 P:y             4.589  0.00     1 C
                                   10.90%     2 P:z             4.589  0.00     2 C
                                   10.11%     1 P:y            -5.239  0.67     2 C
                                   -7.99%     3 S              21.524  0.00     4 O
                                    6.06%     2 P:y             4.589  0.00     2 C
                                    5.70%     5 P:x             2.464  0.00     3 I
                                    3.85%     1 P:z            -5.239  0.67     2 C
                                    3.85%     1 S              -6.532  1.00     5 H
                                    3.66%     3 D:yz            5.015  0.00     3 I
                                   -2.66%     2 S               2.394  0.00     5 H
                                    2.65%     5 P:y             2.464  0.00     3 I
                                   -2.52%     2 S             -13.620  2.00     2 C
                                   -2.52%     3 S              10.158  0.00     2 C
                                    1.60%     1 P:z            -5.239  0.67     1 C
                                    1.55%     1 P:y            -5.239  0.67     1 C
                                    1.46%     2 S             -23.838  2.00     4 O
                                   -1.35%     6 S               2.811  0.00     3 I
                                    1.28%     3 D:z2            5.015  0.00     3 I
       2.624  0.00    45 A         81.60%     5 P:x             2.464  0.00     3 I
                                    9.43%     5 P:z             2.464  0.00     3 I
                                    5.71%     2 P:x             4.589  0.00     1 C
                                    1.55%     2 P:x             4.589  0.00     2 C
       2.957  0.00    46 A         74.25%     5 P:y             2.464  0.00     3 I
                                   14.89%     5 P:z             2.464  0.00     3 I
                                   -4.52%     2 P:y             4.589  0.00     2 C
                                    3.81%     1 P:y            -5.239  0.67     1 C
                                    2.42%     3 D:yz            5.015  0.00     3 I
                                    2.42%     2 S             -13.620  2.00     2 C
                                    1.90%     1 S              -6.532  1.00     5 H
                                    1.43%     2 P:y             4.589  0.00     1 C
                                    1.40%     2 S               2.394  0.00     6 H
                                   -1.07%     2 S               2.394  0.00     5 H
                                    1.01%     2 P:y             9.437  0.00     4 O

 Energy gradients wrt nuclear displacements
 ==========================================

     Atom      Cartesian (a.u./angstrom)
                 X         Y         Z
 ----------------------------------------
     1 C    -0.000567  0.000538 -0.000427
     2 C     0.000423 -0.000568  0.000145
     3 I    -0.000147  0.000093 -0.000381
     4 O    -0.000020  0.000609  0.000307
     5 H     0.000116 -0.000384  0.000074
     6 H     0.000194 -0.000288  0.000282
 ----------------------------------------



 =======================================================================
 Electrostatic potential at the Nuclei due to electrons and other nuclei
 =======================================================================
  
         Atom                  Potential
         ----                  ---------
     1)   C                  14.72827143
     2)   C                  14.66347991
     3)   I                 329.18911339
     4)   O                  22.36572439
     5)   H                   1.05134877
     6)   H                   1.05393284
 Mulliken charges used for AMS results%charges...


    =====================
     CALCULATION RESULTS
    =====================

Energy (hartree)            -1.11333301

Gradients (hartree/bohr)
  Index   Atom            d/dx            d/dy            d/dz
      1      C   -0.0002998439    0.0002847246   -0.0002261724
      2      C    0.0002238179   -0.0003008074    0.0000768685
      3      I   -0.0000776859    0.0000494200   -0.0002017933
      4      O   -0.0000105549    0.0003224575    0.0001622652
      5      H    0.0000615842   -0.0002033995    0.0000393486
      6      H    0.0001026826   -0.0001523953    0.0001494834


--------------
Atomic charges
--------------
  Index   Atom    Charge
      1      C    0.4239
      2      C    0.3668
      3      I   -0.1349
      4      O   -0.3881
      5      H   -0.1356
      6      H   -0.1322


Dipole moment vector    (Debye):    -0.36760032    2.64272700   -0.41726574
              magnitude (Debye):     2.70060117


-----------------------
Molecular orbitals info
-----------------------
n orbitals:              184
n spin:                    2

Note: only printing virtual orbitals with
      energy smaller than HOMO + 100. eV

                     spin-alpha   spin-beta
HOMO (eV):              -6.3345     -6.2963
LUMO (eV):              -2.3245     -5.4234
HOMO-LUMO gap (eV):      4.0099      0.8729

Smallest gap (eV):       0.8729

          |======= spin-alpha =======|       |======= spin-beta ========|

   Index   Energy (eV)    Occupation          Energy (eV)    Occupation
     118       93.2139         0.000              93.3606         0.000       
     117       91.8144         0.000              92.3726         0.000       
     116       91.5617         0.000              91.8366         0.000       
     115       90.0665         0.000              90.3777         0.000       
     114       88.8155         0.000              89.0674         0.000       
     113       83.9844         0.000              84.4753         0.000       
     112       80.9769         0.000              81.1301         0.000       
     111       76.6739         0.000              76.7824         0.000       
     110       75.9548         0.000              76.4253         0.000       
     109       73.1502         0.000              73.2994         0.000       
     108       72.4899         0.000              72.5991         0.000       
     107       70.6726         0.000              70.7673         0.000       
     106       68.5050         0.000              68.5570         0.000       
     105       67.1270         0.000              67.4502         0.000       
     104       64.1977         0.000              64.2614         0.000       
     103       61.9063         0.000              62.5365         0.000       
     102       61.4815         0.000              61.6287         0.000       
     101       58.9810         0.000              59.1171         0.000       
     100       54.3927         0.000              55.1067         0.000       
      99       52.8592         0.000              52.9498         0.000       
      98       50.0985         0.000              50.4087         0.000       
      97       49.9015         0.000              50.3281         0.000       
      96       48.2709         0.000              48.4200         0.000       
      95       44.7962         0.000              44.9293         0.000       
      94       43.8040         0.000              43.9829         0.000       
      93       43.0389         0.000              43.9421         0.000       
      92       40.4227         0.000              40.4892         0.000       
      91       39.3834         0.000              39.5557         0.000       
      90       39.2743         0.000              39.3171         0.000       
      89       38.1842         0.000              38.2761         0.000       
      88       36.9506         0.000              37.4539         0.000       
      87       36.4037         0.000              36.5428         0.000       
      86       36.1616         0.000              36.2545         0.000       
      85       32.5475         0.000              32.6691         0.000       
      84       31.8618         0.000              31.9154         0.000       
      83       30.7877         0.000              31.3431         0.000       
      82       30.7755         0.000              31.1097         0.000       
      81       28.1567         0.000              28.3763         0.000       
      80       27.8536         0.000              28.0657         0.000       
      79       25.6659         0.000              25.8261         0.000       
      78       23.9245         0.000              23.9456         0.000       
      77       23.0705         0.000              23.1265         0.000       
      76       22.9565         0.000              23.1050         0.000       
      75       22.8763         0.000              22.9732         0.000       
      74       21.5630         0.000              21.7276         0.000       
      73       21.4202         0.000              21.5329         0.000       
      72       20.5844         0.000              20.6587         0.000       
      71       20.4674         0.000              20.4969         0.000       
      70       19.3971         0.000              19.5086         0.000       
      69       19.1563         0.000              19.2295         0.000       
      68       19.0910         0.000              19.2101         0.000       
      67       18.1032         0.000              18.2235         0.000       
      66       17.7946         0.000              17.9397         0.000       
      65       16.3917         0.000              16.5133         0.000       
      64       15.8980         0.000              16.0407         0.000       
      63       15.2428         0.000              15.5024         0.000       
      62       13.1473         0.000              13.2595         0.000       
      61       12.5172         0.000              12.7501         0.000       
      60       12.3310         0.000              12.4330         0.000       
      59       11.5686         0.000              11.6196         0.000       
      58        9.6431         0.000               9.8232         0.000       
      57        9.1358         0.000               9.2112         0.000       
      56        7.8889         0.000               8.0482         0.000       
      55        7.8184         0.000               7.9080         0.000       
      54        7.0301         0.000               7.1182         0.000       
      53        6.1388         0.000               6.5352         0.000       
      52        5.6600         0.000               5.9964         0.000       
      51        5.1942         0.000               5.2788         0.000       
      50        5.0191         0.000               5.1415         0.000       
      49        3.9771         0.000               4.1750         0.000       
      48        3.8411         0.000               4.1084         0.000       
      47        3.6306         0.000               3.6624         0.000       
      46        2.9414         0.000               2.9569         0.000       
      45        2.5144         0.000               2.6236         0.000       
      44        2.3405         0.000               2.3613         0.000       
      43        1.8655         0.000               1.9079         0.000       
      42        0.9539         0.000               0.9838         0.000       
      41       -0.1757         0.000              -0.0905         0.000       
      40       -1.4049         0.000              -0.8831         0.000       
      39       -2.3245         0.000 < LUMO       -2.2792         0.000       
      38       -6.3345         1.000 < HOMO       -5.4234         0.000 < LUMO
      37       -6.4407         1.000              -6.2963         1.000 < HOMO
      36       -6.9453         1.000              -6.5453         1.000       
      35       -7.1019         1.000              -6.8353         1.000       
      34      -10.1019         1.000             -10.0230         1.000       
      33      -10.9865         1.000             -10.5759         1.000       
      32      -11.7816         1.000             -11.6377         1.000       
      31      -12.3199         1.000             -12.1775         1.000       
      30      -13.8764         1.000             -13.6669         1.000       
      29      -17.2056         1.000             -17.0815         1.000       
      28      -19.6171         1.000             -19.1018         1.000       
      27      -27.2695         1.000             -27.0799         1.000       
      26      -49.3428         1.000             -49.3266         1.000       
      25      -49.3482         1.000             -49.3297         1.000       
      24      -49.5087         1.000             -49.5070         1.000       
      23      -49.5755         1.000             -49.5583         1.000       
      22      -49.6168         1.000             -49.6073         1.000       
      21     -126.4522         1.000            -126.4483         1.000       
      20     -126.5358         1.000            -126.5176         1.000       
      19     -126.7293         1.000            -126.7263         1.000       
      18     -179.2137         1.000            -179.2054         1.000       
      17     -271.8550         1.000            -271.5847         1.000       
      16     -273.5197         1.000            -273.5384         1.000       
      15     -512.5528         1.000            -512.4336         1.000       
      14     -604.8400         1.000            -604.8353         1.000       
      13     -604.8423         1.000            -604.8368         1.000       
      12     -604.9041         1.000            -604.9035         1.000       
      11     -604.9299         1.000            -604.9246         1.000       
      10     -604.9435         1.000            -604.9407         1.000       
       9     -857.6380         1.000            -857.6360         1.000       
       8     -857.6763         1.000            -857.6678         1.000       
       7     -857.7687         1.000            -857.7671         1.000       
       6    -1025.5236         1.000           -1025.5201         1.000       
       5    -4567.6169         1.000           -4567.6154         1.000       
       4    -4567.6336         1.000           -4567.6264         1.000       
       3    -4567.6670         1.000           -4567.6658         1.000       
       2    -5088.6699         1.000           -5088.6680         1.000       
       1   -32939.2494         1.000          -32939.2455         1.000       

AMS application finished. Exiting.
NORMAL TERMINATION
     Total cpu time:     390.39
  Total system time:       2.63
 Total elapsed time:     394.96
