
 *******************************************************************************
 *                                                                             *
 *  --------------------------------                                           *
 *   Amsterdam Modeling Suite (AMS)              2026.103                      *
 *  --------------------------------                                           *
 *                                               r260501 2026-05-01 873454b5   *
 *                                                                             *
 *                                                                             *
 *                              =================                              *
 *                              |               |                              *
 *                              |     A M S     |                              *
 *                              |               |                              *
 *                              =================                              *
 *                                                                             *
 *                                                                             *
 *   Online information and documentation:  https://www.scm.com/support/       *
 *   E-mail:  support@scm.com   info@scm.com                                   *
 *                                                                             *
 *   Scientific publications using AMS results must be properly referenced     *
 *   See the User Manuals (or the web site) for recommended citations          *
 *   The terms and conditions of the End User License Agreement apply to       *
 *   the use of AMS, https://www.scm.com/license-terms/                        *
 *                                                                             *
 **********************  x86_64_linux_intel / intelmpi  ************************
 
 Licensed to: Jong-June Jeon / University of Seoul 2026-05-13 16:10:32
 SCM User ID: u30731
  
 AMS 2026.103  RunTime: May23-2026 11:23:46  ShM Nodes: 1  Procs: 1

 AMS jobname: optA
 AMS jobid  : 966308983

 Start   directory: /gpfs/tmp_cpu2/yeseo1ee_plams/nme2_batch/plams_nme2/optA/
 Results directory: /gpfs/tmp_cpu2/yeseo1ee_plams/nme2_batch/plams_nme2/optA/
 Scratch directory: /tmp/amstmp_optA_kid0.966308983/

 RNG seed: -1558290431 490701165 1547222208 1147051381 -943469024 1331845013 -315416841 773926492



                      ************************************************************************
                      *  ADF 2026.103  RunTime: May23-2026 11:23:47  ShM Nodes: 1  Procs: 1  *
                      ************************************************************************
  

       ***************************
       *  GEOMETRY OPTIMIZATION  *
       ***************************

Optimization Method                    Quasi Newton
Optimization Coordinates               Delocalized Coordinates
Optimize lattice                       F
 
 ------------------------------------------------------
 Convergence criteria (Hartree,Angstrom)
 ------------------------------------------------------
 Maximum gradient               0.001000000000
 Maximum rms gradient           0.000666666667
 Maximum step allowed           0.010000000000
 Maximum rms step allowed       0.006666666667
 Maximum energy change allowe   0.000140000000
 Maximum stress energy allowe   0.000500000000
 
Initial model Hessian                  Automatic Hessian
 
------------------------------------
Quasi-Newton Optimizer Parameters
------------------------------------
Hessian Update Method                  BFGS
Maximum number of steps                  250
First GDIIS cycle                          0
Maximum GDIIS vectors                      0
Trust radius (bohr)                        0.200000
Trust radius varies                        T
Constraints converged at all steps         T
Use projector                              T
 
 Rigid motions settings for: old optimizer
 Atomic rotations (x,y,z):     T T T
 Atomic translations (x,y,z):  T T T
 Tolerance:                  1.000000000000000E-006

--------
Geometry
--------
Formula: C4H8NO
Atoms
  Index Symbol   x (angstrom)   y (angstrom)   z (angstrom)
      1      C     0.24086481     1.38472600    -1.06694187
      2      C    -0.36451772     0.16771426    -0.81824811
      3      N    -1.13176025    -0.04219985     0.29763242
      4      C    -1.57614992     1.07998149     1.08233480
      5      C    -1.91961858    -1.24704790     0.40952881
      6      O     0.02674912    -0.87634503    -1.46237901
      7      H    -0.11152269     2.30181243    -0.61996079
      8      H     0.73956146     1.47158717    -2.01833540
      9      H    -2.27820986     1.71986840     0.53857074
     10      H    -0.72934304     1.68471428     1.40096483
     11      H    -2.07408011     0.70932962     1.97474912
     12      H    -2.96045835    -1.07144956     0.12167499
     13      H    -1.90213195    -1.60901261     1.43693510
     14      H    -1.50517978    -2.00808204    -0.24074265

Total System Charge              0.00000


----------------
ADF Engine Input
----------------
 
   basis
     core None
     type TZ2P
   End
   numericalquality Good
   relativity
     level Scalar
   End
   scf
     mixing 0.05
   End
   spinpolarization 1
   symmetry NOSYM
   unrestricted yes
   xc
     dispersion Grimme3 BJDAMP
     gga BLYP
   End
 

 Title: *** (NO TITLE) ***

 Using automatic Hessian for delocalized coordinates.
 *** GO1_GOStep1 ***

 Energy gradients wrt nuclear displacements
 ==========================================

     Atom      Cartesian (a.u./angstrom)
                 X         Y         Z
 ----------------------------------------
     1 C     0.008636 -0.075187  0.036308
     2 C    -0.046838  0.145210 -0.008516
     3 N     0.020183 -0.020735 -0.004156
     4 C     0.008119 -0.015264 -0.015664
     5 C     0.002603  0.017644 -0.000389
     6 O     0.018868 -0.036133  0.012679
     7 H    -0.007423 -0.009987 -0.010825
     8 H    -0.016841  0.001324  0.002547
     9 H     0.008193 -0.006153  0.002014
    10 H    -0.004952 -0.005754 -0.004015
    11 H     0.003991  0.000955 -0.007482
    12 H     0.010042 -0.003019  0.001503
    13 H     0.000578  0.002379 -0.009112
    14 H    -0.005159  0.004722  0.005108
 ----------------------------------------
 
----------------------------------------------------------------------
Geometry Convergence after Step   1       (Hartree/Angstrom,Angstrom)
----------------------------------------------------------------------
current energy                               -2.77915504 Hartree
energy change                      -2.77915504     0.00014000    F
constrained gradient max            0.14521714     0.00100000    F
constrained gradient rms            0.02888125     0.00066667    F
gradient max                        0.14521714
gradient rms                        0.02888125
cart. step max                      0.05586396     0.01000000    F
cart. step rms                      0.01826296     0.00666667    F
 

--------
Geometry
--------
Formula: C4H8NO
Atoms
  Index Symbol   x (angstrom)   y (angstrom)   z (angstrom)
      1      C     0.24928194     1.39710508    -1.09647989
      2      C    -0.34315182     0.13793087    -0.82499477
      3      N    -1.13130836    -0.04673689     0.30505909
      4      C    -1.59039238     1.08650619     1.09676902
      5      C    -1.92407075    -1.26009158     0.41956620
      6      O     0.01680154    -0.87103319    -1.51824297
      7      H    -0.07011681     2.31815061    -0.62213671
      8      H     0.76814706     1.48877794    -2.04172561
      9      H    -2.29851463     1.72729882     0.55282579
     10      H    -0.74843979     1.69985009     1.42453157
     11      H    -2.09293931     0.71370860     1.99031212
     12      H    -2.96694195    -1.08502419     0.12072413
     13      H    -1.91602452    -1.61531037     1.45397071
     14      H    -1.49812707    -2.02553531    -0.22439570

Total System Charge              0.00000

 *** GO1_GOStep2 ***

 Energy gradients wrt nuclear displacements
 ==========================================

     Atom      Cartesian (a.u./angstrom)
                 X         Y         Z
 ----------------------------------------
     1 C     0.017669 -0.039543  0.017927
     2 C    -0.039715  0.081729 -0.001749
     3 N     0.009309 -0.016442  0.006983
     4 C     0.001943 -0.008925 -0.005722
     5 C     0.000549  0.011312 -0.000647
     6 O     0.022585 -0.028605 -0.005516
     7 H    -0.004949 -0.002795 -0.007246
     8 H    -0.010545  0.003847 -0.001586
     9 H     0.003471 -0.001155  0.001462
    10 H    -0.002541 -0.001977 -0.000853
    11 H     0.001089  0.001922 -0.002822
    12 H     0.003844 -0.001508  0.000792
    13 H     0.000208  0.000392 -0.004074
    14 H    -0.002915  0.001748  0.003053
 ----------------------------------------

 dE(predicted):    -0.75427E-02, dE(actual):    -0.77587E-02, Trust radius:    0.400000, all in a.u.
 
----------------------------------------------------------------------
Geometry Convergence after Step   2       (Hartree/Angstrom,Angstrom)
----------------------------------------------------------------------
current energy                               -2.78691372 Hartree
energy change                      -0.00775868     0.00014000    F
constrained gradient max            0.08173572     0.00100000    F
constrained gradient rms            0.01744020     0.00066667    F
gradient max                        0.08173572
gradient rms                        0.01744020
cart. step max                      0.11616178     0.01000000    F
cart. step rms                      0.03053717     0.00666667    F
 

--------
Geometry
--------
Formula: C4H8NO
Atoms
  Index Symbol   x (angstrom)   y (angstrom)   z (angstrom)
      1      C     0.22876164     1.40672027    -1.10049462
      2      C    -0.32859640     0.10594216    -0.82373057
      3      N    -1.13597926    -0.04642976     0.30165730
      4      C    -1.59663939     1.10526682     1.08260247
      5      C    -1.91347445    -1.27818347     0.42868881
      6      O    -0.09936024    -0.85879311    -1.58610199
      7      H    -0.02334172     2.31161064    -0.55330568
      8      H     0.81257637     1.50378911    -2.00927207
      9      H    -2.31984992     1.72871877     0.53305203
     10      H    -0.75367127     1.73136366     1.39135993
     11      H    -2.08671883     0.73698839     1.98804860
     12      H    -2.95779557    -1.12337666     0.11299594
     13      H    -1.91148505    -1.61458169     1.47256376
     14      H    -1.46022277    -2.04343846    -0.20228094

Total System Charge              0.00000

 *** GO1_GOStep3 ***

 Energy gradients wrt nuclear displacements
 ==========================================

     Atom      Cartesian (a.u./angstrom)
                 X         Y         Z
 ----------------------------------------
     1 C     0.001063 -0.015157  0.004443
     2 C     0.001098  0.014176  0.001853
     3 N     0.004075 -0.007920 -0.000414
     4 C     0.000124  0.000261 -0.004305
     5 C    -0.000306  0.003399 -0.003176
     6 O    -0.002413 -0.000371  0.003726
     7 H    -0.002016  0.003072  0.000122
     8 H    -0.003291  0.002418 -0.001886
     9 H     0.000395  0.001104  0.000344
    10 H     0.000957  0.000643 -0.000257
    11 H    -0.000264  0.000162 -0.000844
    12 H    -0.000186  0.000084  0.000503
    13 H     0.000484 -0.000968 -0.000701
    14 H     0.000279 -0.000901  0.000593
 ----------------------------------------

 dE(predicted):    -0.48771E-02, dE(actual):    -0.44887E-02, Trust radius:    0.800000, all in a.u.
 
----------------------------------------------------------------------
Geometry Convergence after Step   3       (Hartree/Angstrom,Angstrom)
----------------------------------------------------------------------
current energy                               -2.79140239 Hartree
energy change                      -0.00448867     0.00014000    F
constrained gradient max            0.01515738     0.00100000    F
constrained gradient rms            0.00389303     0.00066667    F
gradient max                        0.01515738
gradient rms                        0.00389303
cart. step max                      0.13240688     0.01000000    F
cart. step rms                      0.03894210     0.00666667    F
 

--------
Geometry
--------
Formula: C4H8NO
Atoms
  Index Symbol   x (angstrom)   y (angstrom)   z (angstrom)
      1      C     0.23675305     1.41479879    -1.12267438
      2      C    -0.38256533     0.11549741    -0.88396425
      3      N    -1.17759354    -0.02424818     0.26214079
      4      C    -1.62535422     1.11134322     1.08307087
      5      C    -1.90938891    -1.28287298     0.43927017
      6      O    -0.14738697    -0.84075070    -1.64325020
      7      H     0.03194956     2.31399347    -0.54812668
      8      H     0.94498326     1.47063519    -1.94358402
      9      H    -2.39702778     1.71665044     0.57878085
     10      H    -0.78447094     1.75784289     1.35494898
     11      H    -2.05482219     0.71822566     2.01046112
     12      H    -2.96773093    -1.16973684     0.14885741
     13      H    -1.86712752    -1.59264376     1.49213737
     14      H    -1.44601441    -2.04313794    -0.19228506

Total System Charge              0.00000

 *** GO1_GOStep4 ***

 Energy gradients wrt nuclear displacements
 ==========================================

     Atom      Cartesian (a.u./angstrom)
                 X         Y         Z
 ----------------------------------------
     1 C     0.001685  0.000688 -0.000585
     2 C    -0.009100 -0.012689 -0.015707
     3 N     0.004919 -0.000996  0.004969
     4 C    -0.001777  0.002315  0.002081
     5 C    -0.000469 -0.001138 -0.000702
     6 O     0.003249  0.007325  0.006831
     7 H     0.000683  0.002417  0.001317
     8 H     0.002151  0.000769 -0.000154
     9 H    -0.001354  0.001387 -0.000654
    10 H     0.001446  0.000930  0.000876
    11 H    -0.000848 -0.000158  0.001021
    12 H    -0.001641  0.000893 -0.000268
    13 H     0.000046 -0.000880  0.001566
    14 H     0.001008 -0.000862 -0.000588
 ----------------------------------------

 dE(predicted):    -0.76883E-03, dE(actual):    -0.33188E-03, Trust radius:    0.800000, all in a.u.
 
----------------------------------------------------------------------
Geometry Convergence after Step   4       (Hartree/Angstrom,Angstrom)
----------------------------------------------------------------------
current energy                               -2.79173427 Hartree
energy change                      -0.00033188     0.00014000    F
constrained gradient max            0.01570512     0.00100000    F
constrained gradient rms            0.00408731     0.00066667    F
gradient max                        0.01570512
gradient rms                        0.00408731
cart. step max                      0.01984821     0.01000000    F
cart. step rms                      0.00728384     0.00666667    F
 

--------
Geometry
--------
Formula: C4H8NO
Atoms
  Index Symbol   x (angstrom)   y (angstrom)   z (angstrom)
      1      C     0.24118219     1.41329257    -1.11830119
      2      C    -0.36271712     0.11694320    -0.86520253
      3      N    -1.17637370    -0.02288212     0.26337612
      4      C    -1.62318697     1.10696718     1.08427013
      5      C    -1.90969080    -1.27826505     0.43736519
      6      O    -0.15510259    -0.83930291    -1.64288503
      7      H     0.02660930     2.31424467    -0.55427199
      8      H     0.92720708     1.47037708    -1.95609109
      9      H    -2.39184068     1.71255130     0.57903682
     10      H    -0.78328209     1.75105944     1.35894182
     11      H    -2.05432624     0.71162175     2.00870792
     12      H    -2.96316768    -1.16808219     0.13397435
     13      H    -1.88000697    -1.58131873     1.49121620
     14      H    -1.44110058    -2.04160952    -0.18435374

Total System Charge              0.00000

 *** GO1_GOStep5 ***

 Energy gradients wrt nuclear displacements
 ==========================================

     Atom      Cartesian (a.u./angstrom)
                 X         Y         Z
 ----------------------------------------
     1 C    -0.001097  0.000317 -0.000875
     2 C     0.001847 -0.000030 -0.001298
     3 N     0.001051 -0.000375  0.002089
     4 C    -0.001987  0.000855  0.000317
     5 C    -0.000976  0.000003  0.000235
     6 O    -0.000490 -0.000564 -0.000984
     7 H     0.000781  0.000059 -0.000066
     8 H     0.000336  0.000343  0.000262
     9 H     0.000096  0.000059 -0.000174
    10 H     0.000250 -0.000555  0.000241
    11 H    -0.000167 -0.000349 -0.000320
    12 H    -0.000043  0.000354  0.000223
    13 H     0.000095 -0.000321  0.000041
    14 H     0.000304  0.000205  0.000309
 ----------------------------------------

 dE(predicted):    -0.29241E-03, dE(actual):    -0.30193E-03, Trust radius:    0.800000, all in a.u.
 
----------------------------------------------------------------------
Geometry Convergence after Step   5       (Hartree/Angstrom,Angstrom)
----------------------------------------------------------------------
current energy                               -2.79203620 Hartree
energy change                      -0.00030193     0.00014000    F
constrained gradient max            0.00208791     0.00100000    F
constrained gradient rms            0.00072777     0.00066667    F
gradient max                        0.00208791
gradient rms                        0.00072777
cart. step max                      0.01744585     0.01000000    F
cart. step rms                      0.00609463     0.00666667    T
 

--------
Geometry
--------
Formula: C4H8NO
Atoms
  Index Symbol   x (angstrom)   y (angstrom)   z (angstrom)
      1      C     0.23958047     1.41272851    -1.11379558
      2      C    -0.36063599     0.11575055    -0.86089646
      3      N    -1.18212847    -0.02276995     0.25991716
      4      C    -1.61832936     1.10765504     1.08453251
      5      C    -1.91379081    -1.27885785     0.43291474
      6      O    -0.14316305    -0.84250315    -1.63406559
      7      H     0.00916345     2.31597611    -0.55992639
      8      H     0.92716492     1.47024432    -1.95014608
      9      H    -2.39316611     1.71232296     0.58803811
     10      H    -0.77595544     1.75357076     1.34684220
     11      H    -2.03768900     0.71551308     2.01567196
     12      H    -2.96637279    -1.17166861     0.12579363
     13      H    -1.88726566    -1.57949200     1.48734866
     14      H    -1.44320902    -2.04287311    -0.18644587

Total System Charge              0.00000

 *** GO1_GOStep6 ***

 Energy gradients wrt nuclear displacements
 ==========================================

     Atom      Cartesian (a.u./angstrom)
                 X         Y         Z
 ----------------------------------------
     1 C    -0.001018 -0.000627  0.000073
     2 C     0.000844  0.001327 -0.000410
     3 N     0.000616 -0.000505  0.001491
     4 C    -0.000916  0.000902 -0.000249
     5 C    -0.000307 -0.000352 -0.000311
     6 O    -0.000173 -0.000779 -0.000774
     7 H     0.000376 -0.000095  0.000185
     8 H    -0.000062  0.000199  0.000078
     9 H     0.000398 -0.000033 -0.000091
    10 H     0.000162 -0.000068  0.000177
    11 H    -0.000029 -0.000023 -0.000407
    12 H     0.000123  0.000056  0.000129
    13 H     0.000122 -0.000007 -0.000117
    14 H    -0.000135  0.000004  0.000226
 ----------------------------------------

 dE(predicted):    -0.32071E-04, dE(actual):    -0.45909E-04, Trust radius:    0.800000, all in a.u.
 
----------------------------------------------------------------------
Geometry Convergence after Step   6       (Hartree/Angstrom,Angstrom)
----------------------------------------------------------------------
current energy                               -2.79208211 Hartree
energy change                      -0.00004591     0.00014000    T
constrained gradient max            0.00148976     0.00100000    F
constrained gradient rms            0.00051083     0.00066667    T
gradient max                        0.00148976
gradient rms                        0.00051083
cart. step max                      0.03816217     0.01000000    F
cart. step rms                      0.01516226     0.00666667    F
 

--------
Geometry
--------
Formula: C4H8NO
Atoms
  Index Symbol   x (angstrom)   y (angstrom)   z (angstrom)
      1      C     0.24097766     1.41262038    -1.11382895
      2      C    -0.35601880     0.11570798    -0.85361828
      3      N    -1.19743090    -0.01698576     0.24974190
      4      C    -1.61358586     1.10619452     1.09193975
      5      C    -1.92271149    -1.27589026     0.42285547
      6      O    -0.12002845    -0.84908796    -1.61289827
      7      H    -0.02570607     2.32630952    -0.59503159
      8      H     0.94603496     1.45888833    -1.93608679
      9      H    -2.40852621     1.70723293     0.62364789
     10      H    -0.76872434     1.75830844     1.32822493
     11      H    -1.99952683     0.71022737     2.03610842
     12      H    -2.97369203    -1.17737385     0.10765789
     13      H    -1.90217343    -1.57124354     1.47874498
     14      H    -1.44468505    -2.03931144    -0.19167436

Total System Charge              0.00000

 *** GO1_GOStep7 ***

 Energy gradients wrt nuclear displacements
 ==========================================

     Atom      Cartesian (a.u./angstrom)
                 X         Y         Z
 ----------------------------------------
     1 C    -0.000263 -0.000506  0.000419
     2 C    -0.000457  0.001414  0.000090
     3 N     0.000131 -0.000389 -0.000168
     4 C     0.000142  0.000190 -0.000207
     5 C     0.000631 -0.000362 -0.000392
     6 O    -0.000186  0.000002  0.000880
     7 H     0.000155 -0.000637  0.000061
     8 H    -0.000431 -0.000183 -0.000205
     9 H     0.000640 -0.000097 -0.000012
    10 H    -0.000253  0.000212  0.000365
    11 H     0.000087  0.000317 -0.000352
    12 H     0.000237 -0.000382 -0.000131
    13 H     0.000050  0.000438 -0.000212
    14 H    -0.000483 -0.000017 -0.000136
 ----------------------------------------

 dE(predicted):    -0.47548E-04, dE(actual):    -0.52552E-04, Trust radius:    0.800000, all in a.u.
 
----------------------------------------------------------------------
Geometry Convergence after Step   7       (Hartree/Angstrom,Angstrom)
----------------------------------------------------------------------
current energy                               -2.79213466 Hartree
energy change                      -0.00005255     0.00014000    T
constrained gradient max            0.00142506     0.00100000    F
constrained gradient rms            0.00040230     0.00066667    T
gradient max                        0.00142506
gradient rms                        0.00040230
cart. step max                      0.04153216     0.01000000    F
cart. step rms                      0.01470618     0.00666667    F
 

--------
Geometry
--------
Formula: C4H8NO
Atoms
  Index Symbol   x (angstrom)   y (angstrom)   z (angstrom)
      1      C     0.24339957     1.41367763    -1.11170376
      2      C    -0.35287937     0.11505229    -0.85178426
      3      N    -1.21034376    -0.01298988     0.23848090
      4      C    -1.61035564     1.10365908     1.09507363
      5      C    -1.93161068    -1.27305690     0.41721879
      6      O    -0.10462032    -0.85114035    -1.60567761
      7      H    -0.05680008     2.33463838    -0.62482507
      8      H     0.97474855     1.45142826    -1.91111238
      9      H    -2.42906026     1.69525810     0.65592396
     10      H    -0.76548251     1.76570350     1.30060617
     11      H    -1.95799467     0.70353094     2.05281409
     12      H    -2.98213383    -1.17976787     0.09861345
     13      H    -1.91347074    -1.56275601     1.47481882
     14      H    -1.44919311    -2.03764051    -0.19266377

Total System Charge              0.00000

 *** GO1_GOStep8 ***

 Energy gradients wrt nuclear displacements
 ==========================================

     Atom      Cartesian (a.u./angstrom)
                 X         Y         Z
 ----------------------------------------
     1 C    -0.000115  0.000551  0.000553
     2 C    -0.000838  0.000366  0.000474
     3 N    -0.000352  0.000437 -0.000896
     4 C     0.000471 -0.000532 -0.000359
     5 C     0.000785 -0.000422  0.000566
     6 O     0.000400 -0.000094  0.000147
     7 H     0.000030 -0.000640  0.000315
     8 H    -0.000373 -0.000477 -0.000228
     9 H     0.000471  0.000036  0.000022
    10 H    -0.000055  0.000268  0.000210
    11 H     0.000033  0.000250 -0.000243
    12 H     0.000086 -0.000363 -0.000265
    13 H    -0.000146  0.000471 -0.000110
    14 H    -0.000400  0.000150 -0.000185
 ----------------------------------------

 dE(predicted):    -0.27420E-04, dE(actual):    -0.27913E-04, Trust radius:    0.800000, all in a.u.
 
----------------------------------------------------------------------
Geometry Convergence after Step   8       (Hartree/Angstrom,Angstrom)
----------------------------------------------------------------------
current energy                               -2.79216257 Hartree
energy change                      -0.00002791     0.00014000    T
constrained gradient max            0.00089764     0.00100000    T
constrained gradient rms            0.00040275     0.00066667    T
gradient max                        0.00089764
gradient rms                        0.00040275
cart. step max                      0.05034268     0.01000000    F
cart. step rms                      0.01830652     0.00666667    F
 

--------
Geometry
--------
Formula: C4H8NO
Atoms
  Index Symbol   x (angstrom)   y (angstrom)   z (angstrom)
      1      C     0.24722562     1.41435559    -1.11289929
      2      C    -0.34677012     0.11459111    -0.84593519
      3      N    -1.22001380    -0.00838230     0.23169839
      4      C    -1.60774618     1.10038359     1.10278723
      5      C    -1.94123447    -1.26835570     0.40895868
      6      O    -0.08730022    -0.85550000    -1.59087364
      7      H    -0.09453904     2.34589069    -0.67516775
      8      H     1.01110733     1.44028054    -1.88184859
      9      H    -2.45418612     1.67653227     0.69569762
     10      H    -0.76751831     1.77722953     1.27459051
     11      H    -1.91136525     0.69495058     2.07389049
     12      H    -2.99173503    -1.17376613     0.09044521
     13      H    -1.92387746    -1.56048182     1.46612168
     14      H    -1.45784380    -2.03213130    -0.20168236

Total System Charge              0.00000

 *** GO1_GOStep9 ***

 Energy gradients wrt nuclear displacements
 ==========================================

     Atom      Cartesian (a.u./angstrom)
                 X         Y         Z
 ----------------------------------------
     1 C     0.000147  0.001354 -0.000026
     2 C    -0.000462 -0.000752  0.000135
     3 N    -0.000772  0.000755 -0.001019
     4 C     0.000637 -0.000889  0.000095
     5 C     0.000842 -0.000106  0.000739
     6 O     0.000145 -0.000163  0.000400
     7 H     0.000116 -0.000243  0.000160
     8 H    -0.000237 -0.000504 -0.000139
     9 H     0.000134  0.000244  0.000049
    10 H    -0.000069  0.000121  0.000286
    11 H    -0.000107  0.000132 -0.000111
    12 H    -0.000095 -0.000265 -0.000297
    13 H    -0.000215  0.000295 -0.000048
    14 H    -0.000063  0.000022 -0.000224
 ----------------------------------------

 dE(predicted):    -0.23600E-04, dE(actual):    -0.23755E-04, Trust radius:    0.800000, all in a.u.
 
----------------------------------------------------------------------
Geometry Convergence after Step   9       (Hartree/Angstrom,Angstrom)
----------------------------------------------------------------------
current energy                               -2.79218633 Hartree
energy change                      -0.00002375     0.00014000    T
constrained gradient max            0.00136190     0.00100000    F
constrained gradient rms            0.00045100     0.00066667    T
gradient max                        0.00136190
gradient rms                        0.00045100
cart. step max                      0.05251679     0.01000000    F
cart. step rms                      0.01921945     0.00666667    F
 

--------
Geometry
--------
Formula: C4H8NO
Atoms
  Index Symbol   x (angstrom)   y (angstrom)   z (angstrom)
      1      C     0.25374282     1.41410231    -1.10932492
      2      C    -0.34078823     0.11399189    -0.84088979
      3      N    -1.22485011    -0.00696976     0.22807309
      4      C    -1.60628364     1.09715116     1.10693495
      5      C    -1.95075997    -1.26440444     0.40276069
      6      O    -0.07496396    -0.85601569    -1.58365928
      7      H    -0.12679361     2.35292751    -0.72069958
      8      H     1.05028667     1.43274447    -1.84480963
      9      H    -2.48459549     1.64709062     0.73115075
     10      H    -0.77708595     1.79597842     1.23707801
     11      H    -1.85884846     0.69176213     2.09332908
     12      H    -3.00275982    -1.16139163     0.09207475
     13      H    -1.92847677    -1.56412479     1.45802836
     14      H    -1.47362034    -2.02724554    -0.21426348

Total System Charge              0.00000

 *** GO1_GOStep10 ***

 Energy gradients wrt nuclear displacements
 ==========================================

     Atom      Cartesian (a.u./angstrom)
                 X         Y         Z
 ----------------------------------------
     1 C     0.000069  0.001125 -0.000164
     2 C     0.000314 -0.001175 -0.000296
     3 N    -0.001082  0.000607 -0.000483
     4 C     0.000564 -0.000799  0.000249
     5 C     0.000409  0.000081  0.000828
     6 O     0.000082 -0.000086 -0.000068
     7 H     0.000079  0.000207  0.000021
     8 H     0.000055 -0.000263 -0.000021
     9 H    -0.000344  0.000446  0.000075
    10 H     0.000202  0.000025  0.000113
    11 H    -0.000184 -0.000067 -0.000054
    12 H    -0.000218 -0.000008 -0.000181
    13 H    -0.000229 -0.000018  0.000001
    14 H     0.000283 -0.000077 -0.000021
 ----------------------------------------

 dE(predicted):    -0.22278E-04, dE(actual):    -0.25155E-04, Trust radius:    0.800000, all in a.u.
 
----------------------------------------------------------------------
Geometry Convergence after Step  10       (Hartree/Angstrom,Angstrom)
----------------------------------------------------------------------
current energy                               -2.79221148 Hartree
energy change                      -0.00002516     0.00014000    T
constrained gradient max            0.00117079     0.00100000    F
constrained gradient rms            0.00041667     0.00066667    T
gradient max                        0.00117079
gradient rms                        0.00041667
cart. step max                      0.02196261     0.01000000    F
cart. step rms                      0.00928942     0.00666667    F
 

--------
Geometry
--------
Formula: C4H8NO
Atoms
  Index Symbol   x (angstrom)   y (angstrom)   z (angstrom)
      1      C     0.25842645     1.41268731    -1.10586927
      2      C    -0.33717808     0.11338633    -0.83758461
      3      N    -1.22046856    -0.00905236     0.23188669
      4      C    -1.60708756     1.09609712     1.10725501
      5      C    -1.95370346    -1.26290933     0.40097047
      6      O    -0.07211437    -0.85539972    -1.58227657
      7      H    -0.13481724     2.35342762    -0.73427385
      8      H     1.06529444     1.43082186    -1.83012170
      9      H    -2.50071763     1.62642426     0.73968086
     10      H    -0.78780129     1.80964378     1.21657227
     11      H    -1.83688585     0.69584166     2.10162927
     12      H    -3.00754834    -1.14830410     0.10131500
     13      H    -1.92401299    -1.57337283     1.45315230
     14      H    -1.48718237    -2.02369495    -0.22655289

Total System Charge              0.00000

 *** GO1_GOStep11 ***

 Energy gradients wrt nuclear displacements
 ==========================================

     Atom      Cartesian (a.u./angstrom)
                 X         Y         Z
 ----------------------------------------
     1 C     0.000001  0.000077 -0.000167
     2 C     0.000404 -0.000579 -0.000381
     3 N    -0.000737  0.000008  0.000082
     4 C     0.000202 -0.000191  0.000189
     5 C    -0.000022  0.000200  0.000360
     6 O     0.000011  0.000005 -0.000204
     7 H    -0.000026  0.000404 -0.000001
     8 H     0.000197  0.000096  0.000030
     9 H    -0.000281  0.000308  0.000048
    10 H     0.000324  0.000016 -0.000081
    11 H    -0.000184 -0.000112  0.000023
    12 H    -0.000125  0.000086 -0.000027
    13 H    -0.000097 -0.000157  0.000008
    14 H     0.000332 -0.000161  0.000122
 ----------------------------------------

 dE(predicted):    -0.13861E-04, dE(actual):    -0.22468E-04, Trust radius:    0.800000, all in a.u.
 
----------------------------------------------------------------------
Geometry Convergence after Step  11       (Hartree/Angstrom,Angstrom)
----------------------------------------------------------------------
current energy                               -2.79223395 Hartree
energy change                      -0.00002247     0.00014000    T
constrained gradient max            0.00073585     0.00100000    T
constrained gradient rms            0.00023432     0.00066667    T
gradient max                        0.00073585
gradient rms                        0.00023432
cart. step max                      0.01724701     0.01000000    F
cart. step rms                      0.00687070     0.00666667    F
 

--------
Geometry
--------
Formula: C4H8NO
Atoms
  Index Symbol   x (angstrom)   y (angstrom)   z (angstrom)
      1      C     0.26264935     1.41099364    -1.10344719
      2      C    -0.33360329     0.11292728    -0.83401147
      3      N    -1.21487548    -0.01066356     0.23651413
      4      C    -1.60870529     1.09536091     1.10743575
      5      C    -1.95472240    -1.26129215     0.39964699
      6      O    -0.06945535    -0.85570415    -1.57943482
      7      H    -0.13541639     2.35250201    -0.73930991
      8      H     1.07124292     1.42852868    -1.82571434
      9      H    -2.51293825     1.60917726     0.74302688
     10      H    -0.79900649     1.82115382     1.20365841
     11      H    -1.82370990     0.69989460     2.10713743
     12      H    -3.01010041    -1.13620640     0.11027507
     13      H    -1.91823655    -1.58176454     1.44871641
     14      H    -1.49891932    -2.01931074    -0.23871037

Total System Charge              0.00000

 *** GO1_GOStep12 ***

 Energy gradients wrt nuclear displacements
 ==========================================

     Atom      Cartesian (a.u./angstrom)
                 X         Y         Z
 ----------------------------------------
     1 C     0.000029 -0.000647 -0.000036
     2 C     0.000030  0.000205 -0.000068
     3 N    -0.000085 -0.000386  0.000255
     4 C    -0.000096  0.000175  0.000123
     5 C    -0.000134  0.000305 -0.000150
     6 O    -0.000054  0.000026 -0.000115
     7 H    -0.000066  0.000230 -0.000104
     8 H     0.000132  0.000255  0.000032
     9 H    -0.000045  0.000059  0.000004
    10 H     0.000180  0.000000 -0.000091
    11 H    -0.000088 -0.000050 -0.000007
    12 H     0.000019  0.000015  0.000025
    13 H     0.000031 -0.000075  0.000018
    14 H     0.000148 -0.000114  0.000114
 ----------------------------------------

 dE(predicted):    -0.75001E-05, dE(actual):    -0.12010E-04, Trust radius:    0.800000, all in a.u.
 
---------------------------------------------------------
Geometry Convergence after Step  12       ** CONVERGED **
---------------------------------------------------------
current energy                               -2.79224596 Hartree
energy change                      -0.00001201     0.00014000    T
constrained gradient max            0.00063670     0.00100000    T
constrained gradient rms            0.00016596     0.00066667    T
gradient max                        0.00063670
gradient rms                        0.00016596
cart. step max                      0.00547529     0.01000000    T
cart. step rms                      0.00177333     0.00666667    T
 
Geometry optimization converged

Optimized geometry:

--------
Geometry
--------
Formula: C4H8NO
Atoms
  Index Symbol   x (angstrom)   y (angstrom)   z (angstrom)
      1      C     0.26264935     1.41099364    -1.10344719
      2      C    -0.33360329     0.11292728    -0.83401147
      3      N    -1.21487548    -0.01066356     0.23651413
      4      C    -1.60870529     1.09536091     1.10743575
      5      C    -1.95472240    -1.26129215     0.39964699
      6      O    -0.06945535    -0.85570415    -1.57943482
      7      H    -0.13541639     2.35250201    -0.73930991
      8      H     1.07124292     1.42852868    -1.82571434
      9      H    -2.51293825     1.60917726     0.74302688
     10      H    -0.79900649     1.82115382     1.20365841
     11      H    -1.82370990     0.69989460     2.10713743
     12      H    -3.01010041    -1.13620640     0.11027507
     13      H    -1.91823655    -1.58176454     1.44871641
     14      H    -1.49891932    -2.01931074    -0.23871037

Total System Charge              0.00000

Performing a single point calculation on the final geometry ...

 *** adf ***



 ===========================
 A T T A C H E D   F I L E S
 ===========================
  
 Restart/tmp/amstmp_optA_kid0.966308983/GO1_GOStep12.rkf*** GO1_GOStep12 ***



 ===============================
 M O D E L   P A R A M E T E R S
 ===============================
  
 DENSITY FUNCTIONAL POTENTIAL (scf)
    LDA:                               Exchange only                           == Not Default ==
    Gradient Corrections:              Becke88 LYP                             == Not Default ==

 SPIN  (restricted / unrestr.)
    Molecule:                          UNrestricted                            == Not Default ==
    Fragments:                         Restricted                               

 OTHER ASPECTS
    Relativistic Corrections:          scalar (ZORA,MAPA)                       

    Nuclear Charge Density Model:      Point Charge Nuclei                      
    Core Treatment:                    Frozen Orbital(s)                        

    Hyperfine or Zeeman Interaction:   ---                                      

 Settings for Grimme D3 dispersion correction

      damping                        BJ
      s6                          1.000
      s8                          2.700
      a1                          0.430
      a2                          4.236

 Other (technical) parameters

      alpha                      14.000
      version                         4
 



 ===============
 G E O M E T R Y  ***  3D  Molecule  ***
 ===============
  

 ATOMS
 =====                            X Y Z                    CHARGE
                                (Angstrom)             Nucl     +Core       At.Mass
                       --------------------------    ----------------       -------
    1  C               0.2626    1.4110   -1.1034      6.00      6.00       12.0000
    2  C              -0.3336    0.1129   -0.8340      6.00      6.00       12.0000
    3  N              -1.2149   -0.0107    0.2365      7.00      7.00       14.0031
    4  C              -1.6087    1.0954    1.1074      6.00      6.00       12.0000
    5  C              -1.9547   -1.2613    0.3996      6.00      6.00       12.0000
    6  O              -0.0695   -0.8557   -1.5794      8.00      8.00       15.9949
    7  H              -0.1354    2.3525   -0.7393      1.00      1.00        1.0078
    8  H               1.0712    1.4285   -1.8257      1.00      1.00        1.0078
    9  H              -2.5129    1.6092    0.7430      1.00      1.00        1.0078
   10  H              -0.7990    1.8212    1.2037      1.00      1.00        1.0078
   11  H              -1.8237    0.6999    2.1071      1.00      1.00        1.0078
   12  H              -3.0101   -1.1362    0.1103      1.00      1.00        1.0078
   13  H              -1.9182   -1.5818    1.4487      1.00      1.00        1.0078
   14  H              -1.4989   -2.0193   -0.2387      1.00      1.00        1.0078


 FRAGMENTS
 =========                                     Atoms in this Fragment     Cart. coord.s (Angstrom)
                                               -------------------------------------------------------
    1  C                                                 1  C            0.2626    1.4110   -1.1034
    2  C                                                 2  C           -0.3336    0.1129   -0.8340
    3  C                                                 4  C           -1.6087    1.0954    1.1074
    4  C                                                 5  C           -1.9547   -1.2613    0.3996
    5  N                                                 3  N           -1.2149   -0.0107    0.2365
    6  O                                                 6  O           -0.0695   -0.8557   -1.5794
    7  H                                                 7  H           -0.1354    2.3525   -0.7393
    8  H                                                 8  H            1.0712    1.4285   -1.8257
    9  H                                                 9  H           -2.5129    1.6092    0.7430
   10  H                                                10  H           -0.7990    1.8212    1.2037
   11  H                                                11  H           -1.8237    0.6999    2.1071
   12  H                                                12  H           -3.0101   -1.1362    0.1103
   13  H                                                13  H           -1.9182   -1.5818    1.4487
   14  H                                                14  H           -1.4989   -2.0193   -0.2387


 Interatomic Distance Matrix (Angstrom)
 --------------------------------------

   1)     0.000
   2)     1.454   0.000
   3)     2.449   1.392   0.000
   4)     2.914   2.522   1.462   0.000
   5)     3.784   2.457   1.462   2.485   0.000
   6)     2.340   1.250   2.307   3.660   2.763   0.000
   7)     1.085   2.250   2.775   2.676   4.203   3.317   0.000
   8)     1.084   2.165   3.399   3.987   4.620   2.565   1.868   0.000
   9)     3.340   3.078   2.137   1.102   2.944   4.176   2.899   4.413   0.000
  10)     2.573   2.699   2.113   1.092   3.389   3.930   2.121   3.582   1.787   0.000
  11)     3.894   3.349   2.092   1.096   2.604   4.369   3.699   4.938   1.778   1.767
          0.000
  12)     4.321   3.101   2.123   2.817   1.101   3.403   4.600   5.195   2.861   3.851
          2.961   0.000
  13)     4.497   3.255   2.105   2.716   1.098   3.621   4.842   5.359   3.322   3.591
          2.377   1.784   0.000
  14)     3.952   2.502   2.084   3.395   1.091   2.279   4.607   4.584   3.893   4.162
          3.606   1.785   1.793   0.000

 Min. Distance =    1.0843
 Max. Distance =    5.3592



 =====================================
 S Y M M E T R Y ,   E L E C T R O N S
 =====================================
  
 Symmetry: NOSYM

 Irreducible Representations, including subspecies
 -------------------------------------------------
 A


 Configuration of Valence Electrons
 ==================================
 ( determined in the SCF procedure )

 Total:   24 (Spin-A)  + 23 (Spin-B)

 Net Charge: 0 (Nuclei minus Electrons)
 Spin polar: 1 (Spin_A minus Spin_B electrons)

 Aufbau principle for MO occupations will be applied through SCF cycle no.     150
 Thereafter, the program will assign electrons to MOs that are spatially
 similar to the occupied MOs in a "reference" cycle ("KeepOrbitals").
 The reference cycle is always the PREVIOUS cycle: it will evolve with
 the SCF procedure.
 ***************************************************************************************************



                                      ****************************************
                                      *  B U I L D : (Fragments, Functions)  *
                                      ****************************************
  



 =======
 S F O s  ***  (Symmetrized Fragment Orbitals)  ***
 =======
  
 SFOs are linear combinations of (valence) Fragment Orbitals (FOs), such that the SFOs transform as the
 irreducible representations of the (molecular) symmetry group. Each SFO is therefore characterized by
 an irrep of the molecule and by a few (or only one) generating FOs.
 The SFOs constitute a symmetry-adapted basis for the Fock matrix. The MO eigenvector coefficients in
 this basis provide a direct interpretation of the MOs in terms of Frontier Orbital Theory.

 The SFOs are combined with auxiliary Core Functions (CFs) to ensure orthogonalization on the (frozen)
 Core Orbitals (COs). The Core-orthogonalized SFOs (CSFOs) constitute the true Fock basis.

 The FOs, and hence also the (C)SFOs are combinations of the elementary basis functions (BAS). The basis
 functions that participate in the description of the SFOs depend on the irrep. The indices of the
 involved functions are printed below for each irrep.
 (The complete list of primitive basis functions is printed in another section)

 Total nr. of (C)SFOs (summation over all irreps) :   244

 NOTE: a (C)SFO that is defined as a combination of more than one FO is usually NOT normalized.



                                       === A ===
 Nr. of SFOs :  244
 Cartesian basis functions that participate in this irrep (total number =   276) :
      1     2     3     4     5     6     9    12     7    10
     13     8    11    14    15    16    17    18    19    20
     21    22    23    24    25    26    27    28    29    30
     31    32    33    34    35    36    39    42    37    40
     43    38    41    44    45    46    47    48    49    50
     51    52    53    54    55    56    57    58    59    60
     61    62    63    64    65    66    69    72    67    70
     73    68    71    74    75    76    77    78    79    80
     81    82    83    84    85    86    87    88    89    90
     91    92    93    94    95    96    99   102    97   100
    103    98   101   104   105   106   107   108   109   110
    111   112   113   114   115   116   117   118   119   120
    121   122   123   124   125   126   129   132   127   130
    133   128   131   134   135   136   137   138   139   140
    141   142   143   144   145   146   147   148   149   150
    151   152   153   154   155   156   159   162   157   160
    163   158   161   164   165   166   167   168   169   170
    171   172   173   174   175   176   177   178   179   180
    181   182   183   184   185   186   187   188   189   190
    191   192   193   194   195   196   197   198   199   200
    201   202   203   204   205   206   207   208   209   210
    211   212   213   214   215   216   217   218   219   220
    221   222   223   224   225   226   227   228   229   230
    231   232   233   234   235   236   237   238   239   240
    241   242   243   244   245   246   247   248   249   250
    251   252   253   254   255   256   257   258   259   260
    261   262   263   264   265   266   267   268   269   270
    271   272   273   274   275   276

    SFO  (index         Fragment          Generating    Expansion in Fragment Orbitals
  indx  incl.CFs)   Occup   Orb.Energy   FragmentType  Coeff.   Orbital     on Fragment
 --------------------------------------------------------------------------------------
     1       1      2.000     -10.066 au  C             1.00      1 S               1
                        (    -273.921 eV)
     2       2      2.000      -0.501 au  C             1.00      2 S               1
                        (     -13.620 eV)
     3       3       --         0.373 au  C             1.00      3 S               1
                        (      10.158 eV)
     4       4       --         5.405 au  C             1.00      4 S               1
                        (     147.073 eV)
     5       5       --        49.848 au  C             1.00      5 S               1
                        (    1356.422 eV)
     6       6      0.667      -0.193 au  C             1.00      1 P:x             1
                        (      -5.239 eV)
     7       7       --         0.169 au  C             1.00      2 P:x             1
                        (       4.589 eV)
     8       8       --         2.013 au  C             1.00      3 P:x             1
                        (      54.789 eV)
     9       9      0.667      -0.193 au  C             1.00      1 P:y             1
                        (      -5.239 eV)
    10      10       --         0.169 au  C             1.00      2 P:y             1
                        (       4.589 eV)
    11      11       --         2.013 au  C             1.00      3 P:y             1
                        (      54.789 eV)
    12      12      0.667      -0.193 au  C             1.00      1 P:z             1
                        (      -5.239 eV)
    13      13       --         0.169 au  C             1.00      2 P:z             1
                        (       4.589 eV)
    14      14       --         2.013 au  C             1.00      3 P:z             1
                        (      54.789 eV)
    15      15       --         1.243 au  C             1.00      1 D:z2            1
                        (      33.824 eV)
    16      16       --         1.243 au  C             1.00      1 D:x2-y2         1
                        (      33.824 eV)
    17      17       --         1.243 au  C             1.00      1 D:xy            1
                        (      33.824 eV)
    18      18       --         1.243 au  C             1.00      1 D:xz            1
                        (      33.824 eV)
    19      19       --         1.243 au  C             1.00      1 D:yz            1
                        (      33.824 eV)
    20      20       --         4.016 au  C             1.00      1 F:z3            1
                        (     109.271 eV)
    21      21       --         4.016 au  C             1.00      1 F:z             1
                        (     109.271 eV)
    22      22       --         4.016 au  C             1.00      1 F:xyz           1
                        (     109.271 eV)
    23      23       --         4.016 au  C             1.00      1 F:z2x           1
                        (     109.271 eV)
    24      24       --         4.016 au  C             1.00      1 F:z2y           1
                        (     109.271 eV)
    25      25       --         4.016 au  C             1.00      1 F:x             1
                        (     109.271 eV)
    26      26       --         4.016 au  C             1.00      1 F:y             1
                        (     109.271 eV)
    27      27      2.000     -10.066 au  C             1.00      1 S               2
                        (    -273.921 eV)
    28      28      2.000      -0.501 au  C             1.00      2 S               2
                        (     -13.620 eV)
    29      29       --         0.373 au  C             1.00      3 S               2
                        (      10.158 eV)
    30      30       --         5.405 au  C             1.00      4 S               2
                        (     147.073 eV)
    31      31       --        49.848 au  C             1.00      5 S               2
                        (    1356.422 eV)
    32      32      0.667      -0.193 au  C             1.00      1 P:x             2
                        (      -5.239 eV)
    33      33       --         0.169 au  C             1.00      2 P:x             2
                        (       4.589 eV)
    34      34       --         2.013 au  C             1.00      3 P:x             2
                        (      54.789 eV)
    35      35      0.667      -0.193 au  C             1.00      1 P:y             2
                        (      -5.239 eV)
    36      36       --         0.169 au  C             1.00      2 P:y             2
                        (       4.589 eV)
    37      37       --         2.013 au  C             1.00      3 P:y             2
                        (      54.789 eV)
    38      38      0.667      -0.193 au  C             1.00      1 P:z             2
                        (      -5.239 eV)
    39      39       --         0.169 au  C             1.00      2 P:z             2
                        (       4.589 eV)
    40      40       --         2.013 au  C             1.00      3 P:z             2
                        (      54.789 eV)
    41      41       --         1.243 au  C             1.00      1 D:z2            2
                        (      33.824 eV)
    42      42       --         1.243 au  C             1.00      1 D:x2-y2         2
                        (      33.824 eV)
    43      43       --         1.243 au  C             1.00      1 D:xy            2
                        (      33.824 eV)
    44      44       --         1.243 au  C             1.00      1 D:xz            2
                        (      33.824 eV)
    45      45       --         1.243 au  C             1.00      1 D:yz            2
                        (      33.824 eV)
    46      46       --         4.016 au  C             1.00      1 F:z3            2
                        (     109.271 eV)
    47      47       --         4.016 au  C             1.00      1 F:z             2
                        (     109.271 eV)
    48      48       --         4.016 au  C             1.00      1 F:xyz           2
                        (     109.271 eV)
    49      49       --         4.016 au  C             1.00      1 F:z2x           2
                        (     109.271 eV)
    50      50       --         4.016 au  C             1.00      1 F:z2y           2
                        (     109.271 eV)
    51      51       --         4.016 au  C             1.00      1 F:x             2
                        (     109.271 eV)
    52      52       --         4.016 au  C             1.00      1 F:y             2
                        (     109.271 eV)
    53      53      2.000     -10.066 au  C             1.00      1 S               3
                        (    -273.921 eV)
    54      54      2.000      -0.501 au  C             1.00      2 S               3
                        (     -13.620 eV)
    55      55       --         0.373 au  C             1.00      3 S               3
                        (      10.158 eV)
    56      56       --         5.405 au  C             1.00      4 S               3
                        (     147.073 eV)
    57      57       --        49.848 au  C             1.00      5 S               3
                        (    1356.422 eV)
    58      58      0.667      -0.193 au  C             1.00      1 P:x             3
                        (      -5.239 eV)
    59      59       --         0.169 au  C             1.00      2 P:x             3
                        (       4.589 eV)
    60      60       --         2.013 au  C             1.00      3 P:x             3
                        (      54.789 eV)
    61      61      0.667      -0.193 au  C             1.00      1 P:y             3
                        (      -5.239 eV)
    62      62       --         0.169 au  C             1.00      2 P:y             3
                        (       4.589 eV)
    63      63       --         2.013 au  C             1.00      3 P:y             3
                        (      54.789 eV)
    64      64      0.667      -0.193 au  C             1.00      1 P:z             3
                        (      -5.239 eV)
    65      65       --         0.169 au  C             1.00      2 P:z             3
                        (       4.589 eV)
    66      66       --         2.013 au  C             1.00      3 P:z             3
                        (      54.789 eV)
    67      67       --         1.243 au  C             1.00      1 D:z2            3
                        (      33.824 eV)
    68      68       --         1.243 au  C             1.00      1 D:x2-y2         3
                        (      33.824 eV)
    69      69       --         1.243 au  C             1.00      1 D:xy            3
                        (      33.824 eV)
    70      70       --         1.243 au  C             1.00      1 D:xz            3
                        (      33.824 eV)
    71      71       --         1.243 au  C             1.00      1 D:yz            3
                        (      33.824 eV)
    72      72       --         4.016 au  C             1.00      1 F:z3            3
                        (     109.271 eV)
    73      73       --         4.016 au  C             1.00      1 F:z             3
                        (     109.271 eV)
    74      74       --         4.016 au  C             1.00      1 F:xyz           3
                        (     109.271 eV)
    75      75       --         4.016 au  C             1.00      1 F:z2x           3
                        (     109.271 eV)
    76      76       --         4.016 au  C             1.00      1 F:z2y           3
                        (     109.271 eV)
    77      77       --         4.016 au  C             1.00      1 F:x             3
                        (     109.271 eV)
    78      78       --         4.016 au  C             1.00      1 F:y             3
                        (     109.271 eV)
    79      79      2.000     -10.066 au  C             1.00      1 S               4
                        (    -273.921 eV)
    80      80      2.000      -0.501 au  C             1.00      2 S               4
                        (     -13.620 eV)
    81      81       --         0.373 au  C             1.00      3 S               4
                        (      10.158 eV)
    82      82       --         5.405 au  C             1.00      4 S               4
                        (     147.073 eV)
    83      83       --        49.848 au  C             1.00      5 S               4
                        (    1356.422 eV)
    84      84      0.667      -0.193 au  C             1.00      1 P:x             4
                        (      -5.239 eV)
    85      85       --         0.169 au  C             1.00      2 P:x             4
                        (       4.589 eV)
    86      86       --         2.013 au  C             1.00      3 P:x             4
                        (      54.789 eV)
    87      87      0.667      -0.193 au  C             1.00      1 P:y             4
                        (      -5.239 eV)
    88      88       --         0.169 au  C             1.00      2 P:y             4
                        (       4.589 eV)
    89      89       --         2.013 au  C             1.00      3 P:y             4
                        (      54.789 eV)
    90      90      0.667      -0.193 au  C             1.00      1 P:z             4
                        (      -5.239 eV)
    91      91       --         0.169 au  C             1.00      2 P:z             4
                        (       4.589 eV)
    92      92       --         2.013 au  C             1.00      3 P:z             4
                        (      54.789 eV)
    93      93       --         1.243 au  C             1.00      1 D:z2            4
                        (      33.824 eV)
    94      94       --         1.243 au  C             1.00      1 D:x2-y2         4
                        (      33.824 eV)
    95      95       --         1.243 au  C             1.00      1 D:xy            4
                        (      33.824 eV)
    96      96       --         1.243 au  C             1.00      1 D:xz            4
                        (      33.824 eV)
    97      97       --         1.243 au  C             1.00      1 D:yz            4
                        (      33.824 eV)
    98      98       --         4.016 au  C             1.00      1 F:z3            4
                        (     109.271 eV)
    99      99       --         4.016 au  C             1.00      1 F:z             4
                        (     109.271 eV)
   100     100       --         4.016 au  C             1.00      1 F:xyz           4
                        (     109.271 eV)
   101     101       --         4.016 au  C             1.00      1 F:z2x           4
                        (     109.271 eV)
   102     102       --         4.016 au  C             1.00      1 F:z2y           4
                        (     109.271 eV)
   103     103       --         4.016 au  C             1.00      1 F:x             4
                        (     109.271 eV)
   104     104       --         4.016 au  C             1.00      1 F:y             4
                        (     109.271 eV)
   105     105      2.000     -14.160 au  N             1.00      1 S               5
                        (    -385.319 eV)
   106     106      2.000      -0.678 au  N             1.00      2 S               5
                        (     -18.450 eV)
   107     107       --         0.517 au  N             1.00      3 S               5
                        (      14.073 eV)
   108     108       --         6.872 au  N             1.00      4 S               5
                        (     186.990 eV)
   109     109       --        63.432 au  N             1.00      5 S               5
                        (    1726.082 eV)
   110     110      1.000      -0.260 au  N             1.00      1 P:x             5
                        (      -7.062 eV)
   111     111       --         0.281 au  N             1.00      2 P:x             5
                        (       7.649 eV)
   112     112       --         3.275 au  N             1.00      3 P:x             5
                        (      89.105 eV)
   113     113      1.000      -0.260 au  N             1.00      1 P:y             5
                        (      -7.062 eV)
   114     114       --         0.281 au  N             1.00      2 P:y             5
                        (       7.649 eV)
   115     115       --         3.275 au  N             1.00      3 P:y             5
                        (      89.105 eV)
   116     116      1.000      -0.260 au  N             1.00      1 P:z             5
                        (      -7.062 eV)
   117     117       --         0.281 au  N             1.00      2 P:z             5
                        (       7.649 eV)
   118     118       --         3.275 au  N             1.00      3 P:z             5
                        (      89.105 eV)
   119     119       --         1.250 au  N             1.00      1 D:z2            5
                        (      34.005 eV)
   120     120       --         1.250 au  N             1.00      1 D:x2-y2         5
                        (      34.005 eV)
   121     121       --         1.250 au  N             1.00      1 D:xy            5
                        (      34.005 eV)
   122     122       --         1.250 au  N             1.00      1 D:xz            5
                        (      34.005 eV)
   123     123       --         1.250 au  N             1.00      1 D:yz            5
                        (      34.005 eV)
   124     124       --         4.013 au  N             1.00      1 F:z3            5
                        (     109.190 eV)
   125     125       --         4.013 au  N             1.00      1 F:z             5
                        (     109.190 eV)
   126     126       --         4.013 au  N             1.00      1 F:xyz           5
                        (     109.190 eV)
   127     127       --         4.013 au  N             1.00      1 F:z2x           5
                        (     109.190 eV)
   128     128       --         4.013 au  N             1.00      1 F:z2y           5
                        (     109.190 eV)
   129     129       --         4.013 au  N             1.00      1 F:x             5
                        (     109.190 eV)
   130     130       --         4.013 au  N             1.00      1 F:y             5
                        (     109.190 eV)
   131     131      2.000     -18.941 au  O             1.00      1 S               6
                        (    -515.403 eV)
   132     132      2.000      -0.876 au  O             1.00      2 S               6
                        (     -23.838 eV)
   133     133       --         0.791 au  O             1.00      3 S               6
                        (      21.524 eV)
   134     134       --        13.422 au  O             1.00      4 S               6
                        (     365.226 eV)
   135     135       --       121.561 au  O             1.00      5 S               6
                        (    3307.838 eV)
   136     136      1.333      -0.331 au  O             1.00      1 P:x             6
                        (      -9.020 eV)
   137     137       --         0.347 au  O             1.00      2 P:x             6
                        (       9.437 eV)
   138     138       --         3.820 au  O             1.00      3 P:x             6
                        (     103.939 eV)
   139     139      1.333      -0.331 au  O             1.00      1 P:y             6
                        (      -9.020 eV)
   140     140       --         0.347 au  O             1.00      2 P:y             6
                        (       9.437 eV)
   141     141       --         3.820 au  O             1.00      3 P:y             6
                        (     103.939 eV)
   142     142      1.333      -0.331 au  O             1.00      1 P:z             6
                        (      -9.020 eV)
   143     143       --         0.347 au  O             1.00      2 P:z             6
                        (       9.437 eV)
   144     144       --         3.820 au  O             1.00      3 P:z             6
                        (     103.939 eV)
   145     145       --         1.071 au  O             1.00      1 D:z2            6
                        (      29.134 eV)
   146     146       --         1.071 au  O             1.00      1 D:x2-y2         6
                        (      29.134 eV)
   147     147       --         1.071 au  O             1.00      1 D:xy            6
                        (      29.134 eV)
   148     148       --         1.071 au  O             1.00      1 D:xz            6
                        (      29.134 eV)
   149     149       --         1.071 au  O             1.00      1 D:yz            6
                        (      29.134 eV)
   150     150       --         3.359 au  O             1.00      1 F:z3            6
                        (      91.410 eV)
   151     151       --         3.359 au  O             1.00      1 F:z             6
                        (      91.410 eV)
   152     152       --         3.359 au  O             1.00      1 F:xyz           6
                        (      91.410 eV)
   153     153       --         3.359 au  O             1.00      1 F:z2x           6
                        (      91.410 eV)
   154     154       --         3.359 au  O             1.00      1 F:z2y           6
                        (      91.410 eV)
   155     155       --         3.359 au  O             1.00      1 F:x             6
                        (      91.410 eV)
   156     156       --         3.359 au  O             1.00      1 F:y             6
                        (      91.410 eV)
   157     157      1.000      -0.240 au  H             1.00      1 S               7
                        (      -6.532 eV)
   158     158       --         0.088 au  H             1.00      2 S               7
                        (       2.394 eV)
   159     159       --         1.502 au  H             1.00      3 S               7
                        (      40.869 eV)
   160     160       --         0.406 au  H             1.00      1 P:x             7
                        (      11.051 eV)
   161     161       --         0.406 au  H             1.00      1 P:y             7
                        (      11.051 eV)
   162     162       --         0.406 au  H             1.00      1 P:z             7
                        (      11.051 eV)
   163     163       --         2.569 au  H             1.00      1 D:z2            7
                        (      69.917 eV)
   164     164       --         2.569 au  H             1.00      1 D:x2-y2         7
                        (      69.917 eV)
   165     165       --         2.569 au  H             1.00      1 D:xy            7
                        (      69.917 eV)
   166     166       --         2.569 au  H             1.00      1 D:xz            7
                        (      69.917 eV)
   167     167       --         2.569 au  H             1.00      1 D:yz            7
                        (      69.917 eV)
   168     168      1.000      -0.240 au  H             1.00      1 S               8
                        (      -6.532 eV)
   169     169       --         0.088 au  H             1.00      2 S               8
                        (       2.394 eV)
   170     170       --         1.502 au  H             1.00      3 S               8
                        (      40.869 eV)
   171     171       --         0.406 au  H             1.00      1 P:x             8
                        (      11.051 eV)
   172     172       --         0.406 au  H             1.00      1 P:y             8
                        (      11.051 eV)
   173     173       --         0.406 au  H             1.00      1 P:z             8
                        (      11.051 eV)
   174     174       --         2.569 au  H             1.00      1 D:z2            8
                        (      69.917 eV)
   175     175       --         2.569 au  H             1.00      1 D:x2-y2         8
                        (      69.917 eV)
   176     176       --         2.569 au  H             1.00      1 D:xy            8
                        (      69.917 eV)
   177     177       --         2.569 au  H             1.00      1 D:xz            8
                        (      69.917 eV)
   178     178       --         2.569 au  H             1.00      1 D:yz            8
                        (      69.917 eV)
   179     179      1.000      -0.240 au  H             1.00      1 S               9
                        (      -6.532 eV)
   180     180       --         0.088 au  H             1.00      2 S               9
                        (       2.394 eV)
   181     181       --         1.502 au  H             1.00      3 S               9
                        (      40.869 eV)
   182     182       --         0.406 au  H             1.00      1 P:x             9
                        (      11.051 eV)
   183     183       --         0.406 au  H             1.00      1 P:y             9
                        (      11.051 eV)
   184     184       --         0.406 au  H             1.00      1 P:z             9
                        (      11.051 eV)
   185     185       --         2.569 au  H             1.00      1 D:z2            9
                        (      69.917 eV)
   186     186       --         2.569 au  H             1.00      1 D:x2-y2         9
                        (      69.917 eV)
   187     187       --         2.569 au  H             1.00      1 D:xy            9
                        (      69.917 eV)
   188     188       --         2.569 au  H             1.00      1 D:xz            9
                        (      69.917 eV)
   189     189       --         2.569 au  H             1.00      1 D:yz            9
                        (      69.917 eV)
   190     190      1.000      -0.240 au  H             1.00      1 S              10
                        (      -6.532 eV)
   191     191       --         0.088 au  H             1.00      2 S              10
                        (       2.394 eV)
   192     192       --         1.502 au  H             1.00      3 S              10
                        (      40.869 eV)
   193     193       --         0.406 au  H             1.00      1 P:x            10
                        (      11.051 eV)
   194     194       --         0.406 au  H             1.00      1 P:y            10
                        (      11.051 eV)
   195     195       --         0.406 au  H             1.00      1 P:z            10
                        (      11.051 eV)
   196     196       --         2.569 au  H             1.00      1 D:z2           10
                        (      69.917 eV)
   197     197       --         2.569 au  H             1.00      1 D:x2-y2        10
                        (      69.917 eV)
   198     198       --         2.569 au  H             1.00      1 D:xy           10
                        (      69.917 eV)
   199     199       --         2.569 au  H             1.00      1 D:xz           10
                        (      69.917 eV)
   200     200       --         2.569 au  H             1.00      1 D:yz           10
                        (      69.917 eV)
   201     201      1.000      -0.240 au  H             1.00      1 S              11
                        (      -6.532 eV)
   202     202       --         0.088 au  H             1.00      2 S              11
                        (       2.394 eV)
   203     203       --         1.502 au  H             1.00      3 S              11
                        (      40.869 eV)
   204     204       --         0.406 au  H             1.00      1 P:x            11
                        (      11.051 eV)
   205     205       --         0.406 au  H             1.00      1 P:y            11
                        (      11.051 eV)
   206     206       --         0.406 au  H             1.00      1 P:z            11
                        (      11.051 eV)
   207     207       --         2.569 au  H             1.00      1 D:z2           11
                        (      69.917 eV)
   208     208       --         2.569 au  H             1.00      1 D:x2-y2        11
                        (      69.917 eV)
   209     209       --         2.569 au  H             1.00      1 D:xy           11
                        (      69.917 eV)
   210     210       --         2.569 au  H             1.00      1 D:xz           11
                        (      69.917 eV)
   211     211       --         2.569 au  H             1.00      1 D:yz           11
                        (      69.917 eV)
   212     212      1.000      -0.240 au  H             1.00      1 S              12
                        (      -6.532 eV)
   213     213       --         0.088 au  H             1.00      2 S              12
                        (       2.394 eV)
   214     214       --         1.502 au  H             1.00      3 S              12
                        (      40.869 eV)
   215     215       --         0.406 au  H             1.00      1 P:x            12
                        (      11.051 eV)
   216     216       --         0.406 au  H             1.00      1 P:y            12
                        (      11.051 eV)
   217     217       --         0.406 au  H             1.00      1 P:z            12
                        (      11.051 eV)
   218     218       --         2.569 au  H             1.00      1 D:z2           12
                        (      69.917 eV)
   219     219       --         2.569 au  H             1.00      1 D:x2-y2        12
                        (      69.917 eV)
   220     220       --         2.569 au  H             1.00      1 D:xy           12
                        (      69.917 eV)
   221     221       --         2.569 au  H             1.00      1 D:xz           12
                        (      69.917 eV)
   222     222       --         2.569 au  H             1.00      1 D:yz           12
                        (      69.917 eV)
   223     223      1.000      -0.240 au  H             1.00      1 S              13
                        (      -6.532 eV)
   224     224       --         0.088 au  H             1.00      2 S              13
                        (       2.394 eV)
   225     225       --         1.502 au  H             1.00      3 S              13
                        (      40.869 eV)
   226     226       --         0.406 au  H             1.00      1 P:x            13
                        (      11.051 eV)
   227     227       --         0.406 au  H             1.00      1 P:y            13
                        (      11.051 eV)
   228     228       --         0.406 au  H             1.00      1 P:z            13
                        (      11.051 eV)
   229     229       --         2.569 au  H             1.00      1 D:z2           13
                        (      69.917 eV)
   230     230       --         2.569 au  H             1.00      1 D:x2-y2        13
                        (      69.917 eV)
   231     231       --         2.569 au  H             1.00      1 D:xy           13
                        (      69.917 eV)
   232     232       --         2.569 au  H             1.00      1 D:xz           13
                        (      69.917 eV)
   233     233       --         2.569 au  H             1.00      1 D:yz           13
                        (      69.917 eV)
   234     234      1.000      -0.240 au  H             1.00      1 S              14
                        (      -6.532 eV)
   235     235       --         0.088 au  H             1.00      2 S              14
                        (       2.394 eV)
   236     236       --         1.502 au  H             1.00      3 S              14
                        (      40.869 eV)
   237     237       --         0.406 au  H             1.00      1 P:x            14
                        (      11.051 eV)
   238     238       --         0.406 au  H             1.00      1 P:y            14
                        (      11.051 eV)
   239     239       --         0.406 au  H             1.00      1 P:z            14
                        (      11.051 eV)
   240     240       --         2.569 au  H             1.00      1 D:z2           14
                        (      69.917 eV)
   241     241       --         2.569 au  H             1.00      1 D:x2-y2        14
                        (      69.917 eV)
   242     242       --         2.569 au  H             1.00      1 D:xy           14
                        (      69.917 eV)
   243     243       --         2.569 au  H             1.00      1 D:xz           14
                        (      69.917 eV)
   244     244       --         2.569 au  H             1.00      1 D:yz           14
                        (      69.917 eV)



 ================================
 (Slater-type)  F U N C T I O N S  ***  (Basis and Fit)  ***
 ================================
  

 Atom Type    1  (C)
 ==============

 Valence Basis Sets:  10
 -----------------------
   1 S    7.680000
   1 S    5.000000
   2 S    1.280000
   2 S    2.100000
   2 S    4.600000
   2 P    0.820000
   2 P    1.480000
   2 P    2.940000
   3 D    2.200000
   4 F    3.300000

 Atom Type    2  (N)
 ==============

 Valence Basis Sets:  10
 -----------------------
   1 S    8.740000
   1 S    5.900000
   2 S    5.150000
   2 S    2.500000
   2 S    1.500000
   2 P    3.680000
   2 P    1.880000
   2 P    1.000000
   3 D    2.200000
   4 F    3.300000

 Atom Type    3  (O)
 ==============

 Valence Basis Sets:  10
 -----------------------
   1 S    9.800000
   1 S    6.800000
   2 S    7.580000
   2 S    2.880000
   2 S    1.720000
   2 P    4.080000
   2 P    2.080000
   2 P    1.120000
   3 D    2.000000
   4 F    3.000000

 Atom Type    4  (H)
 ==============

 Valence Basis Sets:   5
[...]
                                   -1.20%     2 P:x             4.589  0.00     1 C
                                    1.07%     1 P:z            -5.239  0.67     2 C
       4.538  0.00    39 A         13.70%     1 P:z            -5.239  0.67     2 C
                                    9.73%     1 P:y            -5.239  0.67     2 C
                                    8.62%     2 P:y             4.589  0.00     2 C
                                    8.22%     2 P:x             4.589  0.00     2 C
                                    7.54%     2 P:z             4.589  0.00     3 C
                                   -7.51%     3 S              21.524  0.00     6 O
                                    7.47%     1 S              -6.532  1.00     8 H
                                    5.12%     2 P:y             4.589  0.00     4 C
                                    4.91%     2 P:y             4.589  0.00     3 C
                                    4.69%     2 P:y             4.589  0.00     1 C
                                    4.30%     1 P:z            -5.239  0.67     3 C
                                    3.53%     1 S              -6.532  1.00    11 H
                                   -3.15%     2 S             -13.620  2.00     2 C
                                    3.03%     1 P:x            -5.239  0.67     2 C
                                    2.98%     2 P:x             7.649  0.00     5 N
                                    2.68%     2 P:z             4.589  0.00     2 C
                                    2.66%     2 S               2.394  0.00    11 H
                                   -2.57%     2 P:y             7.649  0.00     5 N
                                    2.41%     2 P:x             4.589  0.00     3 C
                                    2.28%     1 P:y            -9.020  1.33     6 O
                                    2.22%     2 S             -23.838  2.00     6 O
                                    2.13%     1 P:x            11.051  0.00     7 H
                                    1.96%     2 S               2.394  0.00     8 H
                                    1.94%     2 S             -13.620  2.00     1 C
                                   -1.67%     3 S              10.158  0.00     3 C
                                    1.67%     1 S              -6.532  1.00    10 H
                                   -1.66%     3 S              10.158  0.00     2 C
                                    1.52%     1 P:x            -5.239  0.67     1 C
                                   -1.41%     2 S               2.394  0.00     7 H
                                    1.37%     1 P:y            -5.239  0.67     1 C
                                   -1.36%     1 P:y            -7.062  1.00     5 N
                                   -1.22%     3 S              40.869  0.00    11 H
                                    1.14%     1 S              -6.532  1.00     7 H
                                    1.14%     1 P:y            -5.239  0.67     3 C
                                   -1.12%     3 S              14.073  0.00     5 N
                                    1.12%     1 P:z            11.051  0.00     7 H
                                    1.12%     2 S             -13.620  2.00     3 C
                                    1.10%     2 S             -18.450  2.00     5 N
                                    1.09%     1 P:z            -7.062  1.00     5 N
                                    1.03%     2 P:z             7.649  0.00     5 N

 Energy gradients wrt nuclear displacements
 ==========================================

     Atom      Cartesian (a.u./angstrom)
                 X         Y         Z
 ----------------------------------------
     1 C     0.000029 -0.000647 -0.000036
     2 C     0.000030  0.000205 -0.000069
     3 N    -0.000085 -0.000386  0.000255
     4 C    -0.000096  0.000175  0.000123
     5 C    -0.000134  0.000305 -0.000150
     6 O    -0.000054  0.000027 -0.000114
     7 H    -0.000066  0.000230 -0.000104
     8 H     0.000132  0.000255  0.000032
     9 H    -0.000045  0.000060  0.000004
    10 H     0.000180  0.000000 -0.000091
    11 H    -0.000088 -0.000050 -0.000007
    12 H     0.000019  0.000015  0.000025
    13 H     0.000031 -0.000075  0.000018
    14 H     0.000148 -0.000114  0.000114
 ----------------------------------------



 =======================================================================
 Electrostatic potential at the Nuclei due to electrons and other nuclei
 =======================================================================
  
         Atom                  Potential
         ----                  ---------
     1)   C                  14.77376464
     2)   C                  14.70244022
     3)   N                  18.38488140
     4)   C                  14.74827661
     5)   C                  14.76365256
     6)   O                  22.44895933
     7)   H                   1.08731591
     8)   H                   1.09572614
     9)   H                   1.10128302
    10)   H                   1.09450989
    11)   H                   1.09608295
    12)   H                   1.11014302
    13)   H                   1.10892688
    14)   H                   1.11302751
 Mulliken charges used for AMS results%charges...


    =====================
     CALCULATION RESULTS
    =====================

Energy (hartree)            -2.79224596

Gradients (hartree/bohr)
  Index   Atom            d/dx            d/dy            d/dz
      1      C    0.0000153731   -0.0003422542   -0.0000192342
      2      C    0.0000157604    0.0001084241   -0.0000362595
      3      N   -0.0000450980   -0.0002040367    0.0001351278
      4      C   -0.0000508546    0.0000926957    0.0000650148
      5      C   -0.0000708870    0.0001611445   -0.0000795032
      6      O   -0.0000287483    0.0000140299   -0.0000605280
      7      H   -0.0000347368    0.0001218319   -0.0000551143
      8      H    0.0000697743    0.0001349312    0.0000169195
      9      H   -0.0000239753    0.0000314935    0.0000022603
     10      H    0.0000954677    0.0000001572   -0.0000482919
     11      H   -0.0000466997   -0.0000262044   -0.0000036072
     12      H    0.0000101883    0.0000079479    0.0000130663
     13      H    0.0000162675   -0.0000395990    0.0000096171
     14      H    0.0000781683   -0.0000605618    0.0000605326


--------------
Atomic charges
--------------
  Index   Atom    Charge
      1      C    0.3200
      2      C    0.5571
      3      N   -0.3466
      4      C    0.8082
      5      C    0.7870
      6      O   -0.5741
      7      H   -0.1785
      8      H   -0.1566
      9      H   -0.1886
     10      H   -0.2180
     11      H   -0.2141
     12      H   -0.1986
     13      H   -0.2090
     14      H   -0.1882


Dipole moment vector    (Debye):    -1.64903429    2.29363180    2.73568514
              magnitude (Debye):     3.93243361


-----------------------
Molecular orbitals info
-----------------------
n orbitals:              244
n spin:                    2

Note: only printing virtual orbitals with
      energy smaller than HOMO + 100. eV

                     spin-alpha   spin-beta
HOMO (eV):              -5.3589     -5.5160
LUMO (eV):              -0.4034     -3.9300
HOMO-LUMO gap (eV):      4.9555      1.5860

Smallest gap (eV):       1.4289

          |======= spin-alpha =======|       |======= spin-beta ========|

   Index   Energy (eV)    Occupation          Energy (eV)    Occupation
     156       93.8010         0.000              93.8538         0.000       
     155       93.4210         0.000              93.5682         0.000       
     154       92.3571         0.000              92.6637         0.000       
     153       91.2048         0.000              91.3210         0.000       
     152       89.9569         0.000              90.0120         0.000       
     151       88.7275         0.000              88.9832         0.000       
     150       87.9374         0.000              87.9936         0.000       
     149       86.9268         0.000              87.0043         0.000       
     148       84.8717         0.000              85.2057         0.000       
     147       84.4797         0.000              84.5469         0.000       
     146       82.7342         0.000              82.8915         0.000       
     145       82.4225         0.000              82.4470         0.000       
     144       81.9255         0.000              82.0983         0.000       
     143       80.4532         0.000              80.5001         0.000       
     142       80.0381         0.000              80.1768         0.000       
     141       79.6163         0.000              79.7006         0.000       
     140       78.9101         0.000              79.0294         0.000       
     139       78.4409         0.000              78.5855         0.000       
     138       77.8583         0.000              77.9242         0.000       
     137       77.6896         0.000              77.7313         0.000       
     136       76.6336         0.000              76.7112         0.000       
     135       76.0838         0.000              76.1200         0.000       
     134       75.4059         0.000              75.4598         0.000       
     133       74.4519         0.000              74.5351         0.000       
     132       73.7637         0.000              73.8784         0.000       
     131       72.5898         0.000              72.6381         0.000       
     130       72.5194         0.000              72.5831         0.000       
     129       71.8173         0.000              71.8156         0.000       
     128       71.0098         0.000              71.1466         0.000       
     127       66.8844         0.000              67.0319         0.000       
     126       66.0946         0.000              66.1839         0.000       
     125       65.1792         0.000              65.3811         0.000       
     124       64.7161         0.000              64.8264         0.000       
     123       63.7642         0.000              63.8963         0.000       
     122       63.1879         0.000              63.5425         0.000       
     121       61.8001         0.000              61.8689         0.000       
     120       60.2435         0.000              60.5386         0.000       
     119       59.8069         0.000              59.8610         0.000       
     118       59.2002         0.000              59.4490         0.000       
     117       58.5293         0.000              58.5776         0.000       
     116       56.9635         0.000              57.0585         0.000       
     115       56.1897         0.000              56.2624         0.000       
     114       55.5493         0.000              55.6856         0.000       
     113       54.8531         0.000              55.1410         0.000       
     112       53.9311         0.000              54.1715         0.000       
     111       52.6315         0.000              52.6936         0.000       
     110       51.4563         0.000              51.5156         0.000       
     109       51.1452         0.000              51.2310         0.000       
     108       50.8645         0.000              50.9855         0.000       
     107       50.2735         0.000              50.3095         0.000       
     106       49.3164         0.000              49.3693         0.000       
     105       48.4260         0.000              48.7021         0.000       
     104       46.4614         0.000              46.5745         0.000       
     103       46.2743         0.000              46.3962         0.000       
     102       45.7515         0.000              46.0847         0.000       
     101       43.9893         0.000              44.5388         0.000       
     100       43.3861         0.000              43.5246         0.000       
      99       42.5845         0.000              42.7631         0.000       
      98       42.0966         0.000              42.3992         0.000       
      97       40.5443         0.000              40.6069         0.000       
      96       39.4616         0.000              39.6383         0.000       
      95       38.7065         0.000              38.7933         0.000       
      94       37.3736         0.000              37.4160         0.000       
      93       36.3143         0.000              36.5047         0.000       
      92       35.3904         0.000              35.5808         0.000       
      91       34.9416         0.000              35.0343         0.000       
      90       34.7076         0.000              34.7552         0.000       
      89       34.2875         0.000              34.4083         0.000       
      88       34.2045         0.000              34.3121         0.000       
      87       33.2743         0.000              33.4010         0.000       
      86       32.6249         0.000              32.7969         0.000       
      85       31.6663         0.000              31.7944         0.000       
      84       30.9530         0.000              31.0460         0.000       
      83       30.8152         0.000              30.9515         0.000       
      82       30.0164         0.000              30.1856         0.000       
      81       28.9158         0.000              28.9673         0.000       
      80       28.1644         0.000              28.2342         0.000       
      79       28.0724         0.000              28.1717         0.000       
      78       27.9051         0.000              27.9690         0.000       
      77       27.4227         0.000              27.4760         0.000       
      76       26.4051         0.000              26.5033         0.000       
      75       25.5885         0.000              25.6926         0.000       
      74       25.1502         0.000              25.1878         0.000       
      73       24.3618         0.000              24.4623         0.000       
      72       23.6791         0.000              23.7771         0.000       
      71       22.6966         0.000              22.7355         0.000       
      70       22.3928         0.000              22.5294         0.000       
      69       22.0055         0.000              22.0552         0.000       
      68       20.9040         0.000              21.0152         0.000       
      67       20.0687         0.000              20.2439         0.000       
      66       19.2563         0.000              19.4448         0.000       
      65       18.7441         0.000              18.8126         0.000       
      64       17.7087         0.000              17.7981         0.000       
      63       16.5727         0.000              16.6312         0.000       
      62       15.9587         0.000              16.1191         0.000       
      61       14.5134         0.000              14.6261         0.000       
      60       13.5227         0.000              13.6460         0.000       
      59       13.4302         0.000              13.4923         0.000       
      58       12.4516         0.000              12.5736         0.000       
      57       11.9975         0.000              12.1011         0.000       
      56       11.7677         0.000              11.8453         0.000       
      55       11.2694         0.000              11.3095         0.000       
      54       11.0209         0.000              11.0787         0.000       
      53       10.8222         0.000              10.8816         0.000       
      52       10.2360         0.000              10.2584         0.000       
      51        9.9538         0.000              10.0206         0.000       
      50        9.6804         0.000               9.8048         0.000       
      49        9.1544         0.000               9.2451         0.000       
      48        8.9172         0.000               8.9979         0.000       
      47        8.3138         0.000               8.4089         0.000       
      46        7.6743         0.000               7.7680         0.000       
      45        7.2081         0.000               7.3048         0.000       
      44        6.8456         0.000               6.9736         0.000       
      43        6.5100         0.000               6.5442         0.000       
      42        6.3235         0.000               6.5195         0.000       
      41        5.9821         0.000               6.1630         0.000       
      40        5.2880         0.000               5.8279         0.000       
      39        4.4817         0.000               4.5377         0.000       
      38        4.1687         0.000               4.2031         0.000       
      37        3.9943         0.000               4.0231         0.000       
      36        3.4634         0.000               3.5133         0.000       
      35        3.2633         0.000               3.2816         0.000       
      34        2.4951         0.000               2.5445         0.000       
      33        2.1368         0.000               2.1632         0.000       
      32        1.9307         0.000               1.9762         0.000       
      31        1.8079         0.000               1.8520         0.000       
      30        1.1944         0.000               1.2103         0.000       
      29        1.0607         0.000               1.0907         0.000       
      28        0.7882         0.000               0.8163         0.000       
      27        0.3360         0.000               0.5185         0.000       
      26        0.2104         0.000               0.3702         0.000       
      25       -0.4034         0.000 < LUMO       -0.3877         0.000       
      24       -5.3589         1.000 < HOMO       -3.9300         0.000 < LUMO
      23       -5.7778         1.000              -5.5160         1.000 < HOMO
      22       -5.8201         1.000              -5.5761         1.000       
      21       -9.0531         1.000              -8.8840         1.000       
      20       -9.2437         1.000              -9.1139         1.000       
      19       -9.6721         1.000              -9.6038         1.000       
      18       -9.8089         1.000              -9.7593         1.000       
      17       -9.9442         1.000              -9.9262         1.000       
      16      -10.3252         1.000             -10.1874         1.000       
      15      -11.6116         1.000             -11.5478         1.000       
      14      -11.6620         1.000             -11.5983         1.000       
      13      -12.2715         1.000             -12.1267         1.000       
      12      -13.3533         1.000             -13.2876         1.000       
      11      -16.5116         1.000             -16.2617         1.000       
      10      -17.7675         1.000             -17.6636         1.000       
       9      -18.4865         1.000             -18.1912         1.000       
       8      -23.0557         1.000             -22.9714         1.000       
       7      -25.3565         1.000             -25.2282         1.000       
       6     -270.5598         1.000            -270.3018         1.000       
       5     -270.5978         1.000            -270.5610         1.000       
       4     -270.9731         1.000            -270.9732         1.000       
       3     -272.2964         1.000            -272.3210         1.000       
       2     -382.3361         1.000            -382.3000         1.000       
       1     -510.1999         1.000            -510.1063         1.000       

AMS application finished. Exiting.
NORMAL TERMINATION
     Total cpu time:    1968.38
  Total system time:       7.26
 Total elapsed time:    1983.99
