
 *******************************************************************************
 *                                                                             *
 *  --------------------------------                                           *
 *   Amsterdam Modeling Suite (AMS)              2026.103                      *
 *  --------------------------------                                           *
 *                                               r260501 2026-05-01 873454b5   *
 *                                                                             *
 *                                                                             *
 *                              =================                              *
 *                              |               |                              *
 *                              |     A M S     |                              *
 *                              |               |                              *
 *                              =================                              *
 *                                                                             *
 *                                                                             *
 *   Online information and documentation:  https://www.scm.com/support/       *
 *   E-mail:  support@scm.com   info@scm.com                                   *
 *                                                                             *
 *   Scientific publications using AMS results must be properly referenced     *
 *   See the User Manuals (or the web site) for recommended citations          *
 *   The terms and conditions of the End User License Agreement apply to       *
 *   the use of AMS, https://www.scm.com/license-terms/                        *
 *                                                                             *
 **********************  x86_64_linux_intel / intelmpi  ************************
 
 Licensed to: Jong-June Jeon / University of Seoul 2026-05-13 16:10:32
 SCM User ID: u30731
  
 AMS 2026.103  RunTime: May30-2026 10:21:17  ShM Nodes: 1  Procs: 1

 AMS jobname: c1_fragA_ts
 AMS jobid  : 56489948

 Start   directory: /gpfs/home1/yeseo1ee/projects/eda-asm-prediction/adf_outputs/batch_000/dipolar_001287/
 Results directory: /gpfs/home1/yeseo1ee/projects/eda-asm-prediction/adf_outputs/batch_000/dipolar_001287/c1_fragA_ts.results/
 Scratch directory: /tmp/amstmp_c1_fragA_ts_kid0.56489948/

 RNG seed: 222514098 -2107914437 1633083469 400712975 -658559459 -2132410735 -57609629 -554614392



                      ************************************************************************
                      *  ADF 2026.103  RunTime: May30-2026 10:21:17  ShM Nodes: 1  Procs: 1  *
                      ************************************************************************
  

       ****************************
       * SINGLE POINT CALCULATION *
       ****************************

--------
Geometry
--------
Formula: C6H7N3O2
Atoms
  Index Symbol   x (angstrom)   y (angstrom)   z (angstrom)
      1      C     1.90295000     2.39754000    -2.20912000
      2      C     0.84812000     1.37657000    -2.48620000
      3      O     0.82914000     0.66346000    -3.47381000
      4      C    -0.28624000     1.24459000    -1.48685000
      5      C    -0.56434000     2.37601000    -0.49609000
      6      C    -1.32672000     3.53311000    -1.07767000
      7      O    -0.13566000     2.35756000     0.63591000
      8      N    -1.24966000     0.43101000    -1.90126000
      9      N    -2.19825000    -0.10295000    -1.14190000
     10      C    -2.84190000     0.71588000    -0.31165000
     11      N    -3.50528000     1.37530000     0.39037000
     12      H     2.16199000     2.44110000    -1.14279000
     13      H     1.49524000     3.38584000    -2.48607000
     14      H     2.79050000     2.19360000    -2.81981000
     15      H    -1.62574000     4.21621000    -0.27234000
     16      H    -2.20152000     3.19437000    -1.65064000
     17      H    -0.66356000     4.06152000    -1.78426000
     18      H    -0.98896000    -0.14119000    -2.71633000

Total System Charge              0.00000


----------------
ADF Engine Input
----------------
 
   Basis
     Type TZ2P
     Core None
   End
   XC
     GGA BLYP
     Dispersion GRIMME3 BJDAMP
   End
   Symmetry NOSYM
   NumericalQuality Normal
   Unrestricted No
   SCF
     Iterations 200
     Converge 1.0e-6
   End
   Save TAPE21
 

 Title: *** (NO TITLE) ***

 *** adf ***



 ===========================
 A T T A C H E D   F I L E S
 ===========================
  



 ===============================
 M O D E L   P A R A M E T E R S
 ===============================
  
 DENSITY FUNCTIONAL POTENTIAL (scf)
    LDA:                               Exchange only                           == Not Default ==
    Gradient Corrections:              Becke88 LYP                             == Not Default ==

 SPIN  (restricted / unrestr.)
    Molecule:                          Restricted                               
    Fragments:                         Restricted                               

 OTHER ASPECTS
    Relativistic Corrections:          scalar (ZORA,MAPA)                       

    Nuclear Charge Density Model:      Point Charge Nuclei                      
    Core Treatment:                    Frozen Orbital(s)                        

    Hyperfine or Zeeman Interaction:   ---                                      

 Settings for Grimme D3 dispersion correction

      damping                        BJ
      s6                          1.000
      s8                          2.700
      a1                          0.430
      a2                          4.236

 Other (technical) parameters

      alpha                      14.000
      version                         4
 


 Fragment File(s)
 ----------------
 C:
         file : /gpfs/home1/yeseo1ee/projects/eda-asm-prediction/adf_outputs/batch_000/dipolar_001287/c1_fragA_ts.results/t21.50BA88D5.C
         jobid: 0
         title: Carbon (TZ2P)
 O:
         file : /gpfs/home1/yeseo1ee/projects/eda-asm-prediction/adf_outputs/batch_000/dipolar_001287/c1_fragA_ts.results/t21.6E90ABAE.O
         jobid: 0
         title: Oxygen (TZ2P)
 N:
         file : /gpfs/home1/yeseo1ee/projects/eda-asm-prediction/adf_outputs/batch_000/dipolar_001287/c1_fragA_ts.results/t21.44EAA48D.N
         jobid: 0
         title: Nitrogen (TZ2P)
 H:
         file : /gpfs/home1/yeseo1ee/projects/eda-asm-prediction/adf_outputs/batch_000/dipolar_001287/c1_fragA_ts.results/t21.6F35CCAB.H
         jobid: 0
         title: Hydrogen (TZ2P)



 ===============
 G E O M E T R Y  ***  3D  Molecule  ***
 ===============
  

 ATOMS
 =====                            X Y Z                    CHARGE
                                (Angstrom)             Nucl     +Core       At.Mass
                       --------------------------    ----------------       -------
    1  C               1.9029    2.3975   -2.2091      6.00      6.00       12.0000
    2  C               0.8481    1.3766   -2.4862      6.00      6.00       12.0000
    3  O               0.8291    0.6635   -3.4738      8.00      8.00       15.9949
    4  C              -0.2862    1.2446   -1.4868      6.00      6.00       12.0000
    5  C              -0.5643    2.3760   -0.4961      6.00      6.00       12.0000
    6  C              -1.3267    3.5331   -1.0777      6.00      6.00       12.0000
    7  O              -0.1357    2.3576    0.6359      8.00      8.00       15.9949
    8  N              -1.2497    0.4310   -1.9013      7.00      7.00       14.0031
    9  N              -2.1982   -0.1029   -1.1419      7.00      7.00       14.0031
   10  C              -2.8419    0.7159   -0.3116      6.00      6.00       12.0000
   11  N              -3.5053    1.3753    0.3904      7.00      7.00       14.0031
   12  H               2.1620    2.4411   -1.1428      1.00      1.00        1.0078
   13  H               1.4952    3.3858   -2.4861      1.00      1.00        1.0078
   14  H               2.7905    2.1936   -2.8198      1.00      1.00        1.0078
   15  H              -1.6257    4.2162   -0.2723      1.00      1.00        1.0078
   16  H              -2.2015    3.1944   -1.6506      1.00      1.00        1.0078
   17  H              -0.6636    4.0615   -1.7843      1.00      1.00        1.0078
   18  H              -0.9890   -0.1412   -2.7163      1.00      1.00        1.0078


 FRAGMENTS
 =========                                     Atoms in this Fragment     Cart. coord.s (Angstrom)
                                               -------------------------------------------------------
    1  C                                                 1  C            1.9029    2.3975   -2.2091
    2  C                                                 2  C            0.8481    1.3766   -2.4862
    3  C                                                 4  C           -0.2862    1.2446   -1.4868
    4  C                                                 5  C           -0.5643    2.3760   -0.4961
    5  C                                                 6  C           -1.3267    3.5331   -1.0777
    6  C                                                10  C           -2.8419    0.7159   -0.3116
    7  O                                                 3  O            0.8291    0.6635   -3.4738
    8  O                                                 7  O           -0.1357    2.3576    0.6359
    9  N                                                 8  N           -1.2497    0.4310   -1.9013
   10  N                                                 9  N           -2.1982   -0.1029   -1.1419
   11  N                                                11  N           -3.5053    1.3753    0.3904
   12  H                                                12  H            2.1620    2.4411   -1.1428
   13  H                                                13  H            1.4952    3.3858   -2.4861
   14  H                                                14  H            2.7905    2.1936   -2.8198
   15  H                                                15  H           -1.6257    4.2162   -0.2723
   16  H                                                16  H           -2.2015    3.1944   -1.6506
   17  H                                                17  H           -0.6636    4.0615   -1.7843
   18  H                                                18  H           -0.9890   -0.1412   -2.7163


 Interatomic Distance Matrix (Angstrom)
 --------------------------------------

   1)     0.000
   2)     1.494   0.000
   3)     2.400   1.218   0.000
   4)     2.578   1.518   2.352   0.000
   5)     3.004   2.637   3.707   1.529   0.000
   6)     3.606   3.371   4.316   2.547   1.503   0.000
   7)     3.500   3.417   4.549   2.402   1.211   2.395   0.000
   8)     3.728   2.374   2.617   1.327   2.495   3.210   3.375   0.000
   9)     4.920   3.644   3.897   2.364   3.038   3.740   3.670   1.327   0.000
  10)     5.380   4.334   4.845   2.862   2.824   3.289   3.304   2.268   1.332   0.000
  11)     6.087   5.218   5.850   3.729   3.231   3.400   3.518   3.351   2.498   1.170
          0.000
  12)     1.098   2.160   3.220   2.747   2.803   3.656   2.907   4.032   5.048   5.358
          5.967   0.000
  13)     1.104   2.111   2.972   2.959   3.037   3.157   3.669   4.075   5.256   5.538
          6.109   1.772   0.000
  14)     1.096   2.133   2.572   3.485   4.085   4.667   4.531   4.503   5.743   6.340
          7.114   1.808   1.792   0.000
  15)     4.417   4.369   5.376   3.478   2.136   1.098   2.549   4.138   4.443   3.706
          3.470   4.273   3.915   5.485   0.000
  16)     4.218   3.647   4.349   2.738   2.164   1.099   3.193   2.933   3.336   2.889
          3.029   4.457   3.795   5.224   1.810   0.000
  17)     3.088   3.160   4.078   2.858   2.124   1.104   3.007   3.679   4.484   4.255
          4.474   3.320   2.368   4.061   1.799   1.771   0.000
  18)     3.881   2.394   2.128   1.981   3.383   4.037   4.267   1.029   1.986   3.154
          4.276   4.367   4.320   4.444   5.036   3.706   4.317   0.000

 Min. Distance =    1.0294
 Max. Distance =    7.1142



 =====================================
 S Y M M E T R Y ,   E L E C T R O N S
 =====================================
  
 Symmetry: NOSYM

 Irreducible Representations, including subspecies
 -------------------------------------------------
 A


 Configuration of Valence Electrons
 ==================================
 ( determined in the SCF procedure )

 Total:   80

 Net Charge: 0 (Nuclei minus Electrons)

 Aufbau principle for MO occupations will be applied through SCF cycle no.     100
 Thereafter, the program will assign electrons to MOs that are spatially
 similar to the occupied MOs in a "reference" cycle ("KeepOrbitals").
 The reference cycle is always the PREVIOUS cycle: it will evolve with
 the SCF procedure.
 ***************************************************************************************************



                                      ****************************************
                                      *  B U I L D : (Fragments, Functions)  *
                                      ****************************************
  



 =======
 S F O s  ***  (Symmetrized Fragment Orbitals)  ***
 =======
  
 SFOs are linear combinations of (valence) Fragment Orbitals (FOs), such that the SFOs transform as the
 irreducible representations of the (molecular) symmetry group. Each SFO is therefore characterized by
 an irrep of the molecule and by a few (or only one) generating FOs.
 The SFOs constitute a symmetry-adapted basis for the Fock matrix. The MO eigenvector coefficients in
 this basis provide a direct interpretation of the MOs in terms of Frontier Orbital Theory.

 The SFOs are combined with auxiliary Core Functions (CFs) to ensure orthogonalization on the (frozen)
 Core Orbitals (COs). The Core-orthogonalized SFOs (CSFOs) constitute the true Fock basis.

 The FOs, and hence also the (C)SFOs are combinations of the elementary basis functions (BAS). The basis
 functions that participate in the description of the SFOs depend on the irrep. The indices of the
 involved functions are printed below for each irrep.
 (The complete list of primitive basis functions is printed in another section)

 Total nr. of (C)SFOs (summation over all irreps) :   363

 NOTE: a (C)SFO that is defined as a combination of more than one FO is usually NOT normalized.



                                       === A ===
 Nr. of SFOs :  363
 Cartesian basis functions that participate in this irrep (total number =   414) :
      1     2     3     4     5     6     9    12     7    10
     13     8    11    14    15    16    17    18    19    20
     21    22    23    24    25    26    27    28    29    30
     31    32    33    34    35    36    39    42    37    40
     43    38    41    44    45    46    47    48    49    50
     51    52    53    54    55    56    57    58    59    60
     61    62    63    64    65    66    69    72    67    70
     73    68    71    74    75    76    77    78    79    80
     81    82    83    84    85    86    87    88    89    90
     91    92    93    94    95    96    99   102    97   100
    103    98   101   104   105   106   107   108   109   110
    111   112   113   114   115   116   117   118   119   120
    121   122   123   124   125   126   129   132   127   130
    133   128   131   134   135   136   137   138   139   140
    141   142   143   144   145   146   147   148   149   150
    151   152   153   154   155   156   159   162   157   160
    163   158   161   164   165   166   167   168   169   170
    171   172   173   174   175   176   177   178   179   180
    181   182   183   184   185   186   189   192   187   190
    193   188   191   194   195   196   197   198   199   200
    201   202   203   204   205   206   207   208   209   210
    211   212   213   214   215   216   219   222   217   220
    223   218   221   224   225   226   227   228   229   230
    231   232   233   234   235   236   237   238   239   240
    241   242   243   244   245   246   249   252   247   250
    253   248   251   254   255   256   257   258   259   260
    261   262   263   264   265   266   267   268   269   270
    271   272   273   274   275   276   279   282   277   280
    283   278   281   284   285   286   287   288   289   290
    291   292   293   294   295   296   297   298   299   300
    301   302   303   304   305   306   309   312   307   310
    313   308   311   314   315   316   317   318   319   320
    321   322   323   324   325   326   327   328   329   330
    331   332   333   334   335   336   337   338   339   340
    341   342   343   344   345   346   347   348   349   350
    351   352   353   354   355   356   357   358   359   360
    361   362   363   364   365   366   367   368   369   370
    371   372   373   374   375   376   377   378   379   380
    381   382   383   384   385   386   387   388   389   390
    391   392   393   394   395   396   397   398   399   400
    401   402   403   404   405   406   407   408   409   410
    411   412   413   414

    SFO  (index         Fragment          Generating    Expansion in Fragment Orbitals
  indx  incl.CFs)   Occup   Orb.Energy   FragmentType  Coeff.   Orbital     on Fragment
 --------------------------------------------------------------------------------------
     1       1      2.000     -10.066 au  C             1.00      1 S               1
                        (    -273.921 eV)
     2       2      2.000      -0.501 au  C             1.00      2 S               1
                        (     -13.620 eV)
     3       3       --         0.373 au  C             1.00      3 S               1
                        (      10.158 eV)
     4       4       --         5.405 au  C             1.00      4 S               1
                        (     147.073 eV)
     5       5       --        49.848 au  C             1.00      5 S               1
                        (    1356.422 eV)
     6       6      0.667      -0.193 au  C             1.00      1 P:x             1
                        (      -5.239 eV)
     7       7       --         0.169 au  C             1.00      2 P:x             1
                        (       4.589 eV)
     8       8       --         2.013 au  C             1.00      3 P:x             1
                        (      54.789 eV)
     9       9      0.667      -0.193 au  C             1.00      1 P:y             1
                        (      -5.239 eV)
    10      10       --         0.169 au  C             1.00      2 P:y             1
                        (       4.589 eV)
    11      11       --         2.013 au  C             1.00      3 P:y             1
                        (      54.789 eV)
    12      12      0.667      -0.193 au  C             1.00      1 P:z             1
                        (      -5.239 eV)
    13      13       --         0.169 au  C             1.00      2 P:z             1
                        (       4.589 eV)
    14      14       --         2.013 au  C             1.00      3 P:z             1
                        (      54.789 eV)
    15      15       --         1.243 au  C             1.00      1 D:z2            1
                        (      33.824 eV)
    16      16       --         1.243 au  C             1.00      1 D:x2-y2         1
                        (      33.824 eV)
    17      17       --         1.243 au  C             1.00      1 D:xy            1
                        (      33.824 eV)
    18      18       --         1.243 au  C             1.00      1 D:xz            1
                        (      33.824 eV)
    19      19       --         1.243 au  C             1.00      1 D:yz            1
                        (      33.824 eV)
    20      20       --         4.016 au  C             1.00      1 F:z3            1
                        (     109.271 eV)
    21      21       --         4.016 au  C             1.00      1 F:z             1
                        (     109.271 eV)
    22      22       --         4.016 au  C             1.00      1 F:xyz           1
                        (     109.271 eV)
    23      23       --         4.016 au  C             1.00      1 F:z2x           1
                        (     109.271 eV)
    24      24       --         4.016 au  C             1.00      1 F:z2y           1
                        (     109.271 eV)
    25      25       --         4.016 au  C             1.00      1 F:x             1
                        (     109.271 eV)
    26      26       --         4.016 au  C             1.00      1 F:y             1
                        (     109.271 eV)
    27      27      2.000     -10.066 au  C             1.00      1 S               2
                        (    -273.921 eV)
    28      28      2.000      -0.501 au  C             1.00      2 S               2
                        (     -13.620 eV)
    29      29       --         0.373 au  C             1.00      3 S               2
                        (      10.158 eV)
    30      30       --         5.405 au  C             1.00      4 S               2
                        (     147.073 eV)
    31      31       --        49.848 au  C             1.00      5 S               2
                        (    1356.422 eV)
    32      32      0.667      -0.193 au  C             1.00      1 P:x             2
                        (      -5.239 eV)
    33      33       --         0.169 au  C             1.00      2 P:x             2
                        (       4.589 eV)
    34      34       --         2.013 au  C             1.00      3 P:x             2
                        (      54.789 eV)
    35      35      0.667      -0.193 au  C             1.00      1 P:y             2
                        (      -5.239 eV)
    36      36       --         0.169 au  C             1.00      2 P:y             2
                        (       4.589 eV)
    37      37       --         2.013 au  C             1.00      3 P:y             2
                        (      54.789 eV)
    38      38      0.667      -0.193 au  C             1.00      1 P:z             2
                        (      -5.239 eV)
    39      39       --         0.169 au  C             1.00      2 P:z             2
                        (       4.589 eV)
    40      40       --         2.013 au  C             1.00      3 P:z             2
                        (      54.789 eV)
    41      41       --         1.243 au  C             1.00      1 D:z2            2
                        (      33.824 eV)
    42      42       --         1.243 au  C             1.00      1 D:x2-y2         2
                        (      33.824 eV)
    43      43       --         1.243 au  C             1.00      1 D:xy            2
                        (      33.824 eV)
    44      44       --         1.243 au  C             1.00      1 D:xz            2
                        (      33.824 eV)
    45      45       --         1.243 au  C             1.00      1 D:yz            2
                        (      33.824 eV)
    46      46       --         4.016 au  C             1.00      1 F:z3            2
                        (     109.271 eV)
    47      47       --         4.016 au  C             1.00      1 F:z             2
                        (     109.271 eV)
    48      48       --         4.016 au  C             1.00      1 F:xyz           2
                        (     109.271 eV)
    49      49       --         4.016 au  C             1.00      1 F:z2x           2
                        (     109.271 eV)
    50      50       --         4.016 au  C             1.00      1 F:z2y           2
                        (     109.271 eV)
    51      51       --         4.016 au  C             1.00      1 F:x             2
                        (     109.271 eV)
    52      52       --         4.016 au  C             1.00      1 F:y             2
                        (     109.271 eV)
    53      53      2.000     -10.066 au  C             1.00      1 S               3
                        (    -273.921 eV)
    54      54      2.000      -0.501 au  C             1.00      2 S               3
                        (     -13.620 eV)
    55      55       --         0.373 au  C             1.00      3 S               3
                        (      10.158 eV)
    56      56       --         5.405 au  C             1.00      4 S               3
                        (     147.073 eV)
    57      57       --        49.848 au  C             1.00      5 S               3
                        (    1356.422 eV)
    58      58      0.667      -0.193 au  C             1.00      1 P:x             3
                        (      -5.239 eV)
    59      59       --         0.169 au  C             1.00      2 P:x             3
                        (       4.589 eV)
    60      60       --         2.013 au  C             1.00      3 P:x             3
                        (      54.789 eV)
    61      61      0.667      -0.193 au  C             1.00      1 P:y             3
                        (      -5.239 eV)
    62      62       --         0.169 au  C             1.00      2 P:y             3
                        (       4.589 eV)
    63      63       --         2.013 au  C             1.00      3 P:y             3
                        (      54.789 eV)
    64      64      0.667      -0.193 au  C             1.00      1 P:z             3
                        (      -5.239 eV)
    65      65       --         0.169 au  C             1.00      2 P:z             3
                        (       4.589 eV)
    66      66       --         2.013 au  C             1.00      3 P:z             3
                        (      54.789 eV)
    67      67       --         1.243 au  C             1.00      1 D:z2            3
                        (      33.824 eV)
    68      68       --         1.243 au  C             1.00      1 D:x2-y2         3
                        (      33.824 eV)
    69      69       --         1.243 au  C             1.00      1 D:xy            3
                        (      33.824 eV)
    70      70       --         1.243 au  C             1.00      1 D:xz            3
                        (      33.824 eV)
    71      71       --         1.243 au  C             1.00      1 D:yz            3
                        (      33.824 eV)
    72      72       --         4.016 au  C             1.00      1 F:z3            3
                        (     109.271 eV)
    73      73       --         4.016 au  C             1.00      1 F:z             3
                        (     109.271 eV)
    74      74       --         4.016 au  C             1.00      1 F:xyz           3
                        (     109.271 eV)
    75      75       --         4.016 au  C             1.00      1 F:z2x           3
                        (     109.271 eV)
    76      76       --         4.016 au  C             1.00      1 F:z2y           3
                        (     109.271 eV)
    77      77       --         4.016 au  C             1.00      1 F:x             3
                        (     109.271 eV)
    78      78       --         4.016 au  C             1.00      1 F:y             3
                        (     109.271 eV)
    79      79      2.000     -10.066 au  C             1.00      1 S               4
                        (    -273.921 eV)
    80      80      2.000      -0.501 au  C             1.00      2 S               4
                        (     -13.620 eV)
    81      81       --         0.373 au  C             1.00      3 S               4
                        (      10.158 eV)
    82      82       --         5.405 au  C             1.00      4 S               4
                        (     147.073 eV)
    83      83       --        49.848 au  C             1.00      5 S               4
                        (    1356.422 eV)
    84      84      0.667      -0.193 au  C             1.00      1 P:x             4
                        (      -5.239 eV)
    85      85       --         0.169 au  C             1.00      2 P:x             4
                        (       4.589 eV)
    86      86       --         2.013 au  C             1.00      3 P:x             4
                        (      54.789 eV)
    87      87      0.667      -0.193 au  C             1.00      1 P:y             4
                        (      -5.239 eV)
    88      88       --         0.169 au  C             1.00      2 P:y             4
                        (       4.589 eV)
    89      89       --         2.013 au  C             1.00      3 P:y             4
                        (      54.789 eV)
    90      90      0.667      -0.193 au  C             1.00      1 P:z             4
                        (      -5.239 eV)
    91      91       --         0.169 au  C             1.00      2 P:z             4
                        (       4.589 eV)
    92      92       --         2.013 au  C             1.00      3 P:z             4
                        (      54.789 eV)
    93      93       --         1.243 au  C             1.00      1 D:z2            4
                        (      33.824 eV)
    94      94       --         1.243 au  C             1.00      1 D:x2-y2         4
                        (      33.824 eV)
    95      95       --         1.243 au  C             1.00      1 D:xy            4
                        (      33.824 eV)
    96      96       --         1.243 au  C             1.00      1 D:xz            4
                        (      33.824 eV)
    97      97       --         1.243 au  C             1.00      1 D:yz            4
                        (      33.824 eV)
    98      98       --         4.016 au  C             1.00      1 F:z3            4
                        (     109.271 eV)
    99      99       --         4.016 au  C             1.00      1 F:z             4
                        (     109.271 eV)
   100     100       --         4.016 au  C             1.00      1 F:xyz           4
                        (     109.271 eV)
   101     101       --         4.016 au  C             1.00      1 F:z2x           4
                        (     109.271 eV)
   102     102       --         4.016 au  C             1.00      1 F:z2y           4
                        (     109.271 eV)
   103     103       --         4.016 au  C             1.00      1 F:x             4
                        (     109.271 eV)
   104     104       --         4.016 au  C             1.00      1 F:y             4
                        (     109.271 eV)
   105     105      2.000     -10.066 au  C             1.00      1 S               5
                        (    -273.921 eV)
   106     106      2.000      -0.501 au  C             1.00      2 S               5
                        (     -13.620 eV)
   107     107       --         0.373 au  C             1.00      3 S               5
                        (      10.158 eV)
   108     108       --         5.405 au  C             1.00      4 S               5
                        (     147.073 eV)
   109     109       --        49.848 au  C             1.00      5 S               5
                        (    1356.422 eV)
   110     110      0.667      -0.193 au  C             1.00      1 P:x             5
                        (      -5.239 eV)
   111     111       --         0.169 au  C             1.00      2 P:x             5
                        (       4.589 eV)
   112     112       --         2.013 au  C             1.00      3 P:x             5
                        (      54.789 eV)
   113     113      0.667      -0.193 au  C             1.00      1 P:y             5
                        (      -5.239 eV)
   114     114       --         0.169 au  C             1.00      2 P:y             5
                        (       4.589 eV)
   115     115       --         2.013 au  C             1.00      3 P:y             5
                        (      54.789 eV)
   116     116      0.667      -0.193 au  C             1.00      1 P:z             5
                        (      -5.239 eV)
   117     117       --         0.169 au  C             1.00      2 P:z             5
                        (       4.589 eV)
   118     118       --         2.013 au  C             1.00      3 P:z             5
                        (      54.789 eV)
   119     119       --         1.243 au  C             1.00      1 D:z2            5
                        (      33.824 eV)
   120     120       --         1.243 au  C             1.00      1 D:x2-y2         5
                        (      33.824 eV)
   121     121       --         1.243 au  C             1.00      1 D:xy            5
                        (      33.824 eV)
   122     122       --         1.243 au  C             1.00      1 D:xz            5
                        (      33.824 eV)
   123     123       --         1.243 au  C             1.00      1 D:yz            5
                        (      33.824 eV)
   124     124       --         4.016 au  C             1.00      1 F:z3            5
                        (     109.271 eV)
   125     125       --         4.016 au  C             1.00      1 F:z             5
                        (     109.271 eV)
   126     126       --         4.016 au  C             1.00      1 F:xyz           5
                        (     109.271 eV)
   127     127       --         4.016 au  C             1.00      1 F:z2x           5
                        (     109.271 eV)
   128     128       --         4.016 au  C             1.00      1 F:z2y           5
                        (     109.271 eV)
   129     129       --         4.016 au  C             1.00      1 F:x             5
                        (     109.271 eV)
   130     130       --         4.016 au  C             1.00      1 F:y             5
                        (     109.271 eV)
   131     131      2.000     -10.066 au  C             1.00      1 S               6
                        (    -273.921 eV)
   132     132      2.000      -0.501 au  C             1.00      2 S               6
                        (     -13.620 eV)
   133     133       --         0.373 au  C             1.00      3 S               6
                        (      10.158 eV)
   134     134       --         5.405 au  C             1.00      4 S               6
                        (     147.073 eV)
   135     135       --        49.848 au  C             1.00      5 S               6
                        (    1356.422 eV)
   136     136      0.667      -0.193 au  C             1.00      1 P:x             6
                        (      -5.239 eV)
   137     137       --         0.169 au  C             1.00      2 P:x             6
                        (       4.589 eV)
   138     138       --         2.013 au  C             1.00      3 P:x             6
                        (      54.789 eV)
   139     139      0.667      -0.193 au  C             1.00      1 P:y             6
                        (      -5.239 eV)
   140     140       --         0.169 au  C             1.00      2 P:y             6
                        (       4.589 eV)
   141     141       --         2.013 au  C             1.00      3 P:y             6
                        (      54.789 eV)
   142     142      0.667      -0.193 au  C             1.00      1 P:z             6
                        (      -5.239 eV)
   143     143       --         0.169 au  C             1.00      2 P:z             6
                        (       4.589 eV)
   144     144       --         2.013 au  C             1.00      3 P:z             6
                        (      54.789 eV)
   145     145       --         1.243 au  C             1.00      1 D:z2            6
                        (      33.824 eV)
   146     146       --         1.243 au  C             1.00      1 D:x2-y2         6
                        (      33.824 eV)
   147     147       --         1.243 au  C             1.00      1 D:xy            6
                        (      33.824 eV)
   148     148       --         1.243 au  C             1.00      1 D:xz            6
                        (      33.824 eV)
   149     149       --         1.243 au  C             1.00      1 D:yz            6
                        (      33.824 eV)
   150     150       --         4.016 au  C             1.00      1 F:z3            6
                        (     109.271 eV)
   151     151       --         4.016 au  C             1.00      1 F:z             6
                        (     109.271 eV)
   152     152       --         4.016 au  C             1.00      1 F:xyz           6
                        (     109.271 eV)
   153     153       --         4.016 au  C             1.00      1 F:z2x           6
                        (     109.271 eV)
   154     154       --         4.016 au  C             1.00      1 F:z2y           6
                        (     109.271 eV)
   155     155       --         4.016 au  C             1.00      1 F:x             6
                        (     109.271 eV)
   156     156       --         4.016 au  C             1.00      1 F:y             6
                        (     109.271 eV)
   157     157      2.000     -18.941 au  O             1.00      1 S               7
                        (    -515.403 eV)
   158     158      2.000      -0.876 au  O             1.00      2 S               7
                        (     -23.838 eV)
   159     159       --         0.791 au  O             1.00      3 S               7
                        (      21.524 eV)
   160     160       --        13.422 au  O             1.00      4 S               7
                        (     365.226 eV)
   161     161       --       121.561 au  O             1.00      5 S               7
                        (    3307.838 eV)
   162     162      1.333      -0.331 au  O             1.00      1 P:x             7
                        (      -9.020 eV)
   163     163       --         0.347 au  O             1.00      2 P:x             7
                        (       9.437 eV)
   164     164       --         3.820 au  O             1.00      3 P:x             7
                        (     103.939 eV)
   165     165      1.333      -0.331 au  O             1.00      1 P:y             7
                        (      -9.020 eV)
   166     166       --         0.347 au  O             1.00      2 P:y             7
                        (       9.437 eV)
   167     167       --         3.820 au  O             1.00      3 P:y             7
                        (     103.939 eV)
   168     168      1.333      -0.331 au  O             1.00      1 P:z             7
                        (      -9.020 eV)
   169     169       --         0.347 au  O             1.00      2 P:z             7
                        (       9.437 eV)
   170     170       --         3.820 au  O             1.00      3 P:z             7
                        (     103.939 eV)
   171     171       --         1.071 au  O             1.00      1 D:z2            7
                        (      29.134 eV)
   172     172       --         1.071 au  O             1.00      1 D:x2-y2         7
                        (      29.134 eV)
   173     173       --         1.071 au  O             1.00      1 D:xy            7
                        (      29.134 eV)
   174     174       --         1.071 au  O             1.00      1 D:xz            7
                        (      29.134 eV)
   175     175       --         1.071 au  O             1.00      1 D:yz            7
                        (      29.134 eV)
   176     176       --         3.359 au  O             1.00      1 F:z3            7
                        (      91.410 eV)
   177     177       --         3.359 au  O             1.00      1 F:z             7
                        (      91.410 eV)
   178     178       --         3.359 au  O             1.00      1 F:xyz           7
                        (      91.410 eV)
   179     179       --         3.359 au  O             1.00      1 F:z2x           7
                        (      91.410 eV)
   180     180       --         3.359 au  O             1.00      1 F:z2y           7
                        (      91.410 eV)
   181     181       --         3.359 au  O             1.00      1 F:x             7
                        (      91.410 eV)
   182     182       --         3.359 au  O             1.00      1 F:y             7
                        (      91.410 eV)
   183     183      2.000     -18.941 au  O             1.00      1 S               8
                        (    -515.403 eV)
   184     184      2.000      -0.876 au  O             1.00      2 S               8
                        (     -23.838 eV)
   185     185       --         0.791 au  O             1.00      3 S               8
                        (      21.524 eV)
   186     186       --        13.422 au  O             1.00      4 S               8
                        (     365.226 eV)
   187     187       --       121.561 au  O             1.00      5 S               8
                        (    3307.838 eV)
   188     188      1.333      -0.331 au  O             1.00      1 P:x             8
                        (      -9.020 eV)
   189     189       --         0.347 au  O             1.00      2 P:x             8
                        (       9.437 eV)
   190     190       --         3.820 au  O             1.00      3 P:x             8
                        (     103.939 eV)
   191     191      1.333      -0.331 au  O             1.00      1 P:y             8
                        (      -9.020 eV)
   192     192       --         0.347 au  O             1.00      2 P:y             8
                        (       9.437 eV)
   193     193       --         3.820 au  O             1.00      3 P:y             8
                        (     103.939 eV)
   194     194      1.333      -0.331 au  O             1.00      1 P:z             8
                        (      -9.020 eV)
   195     195       --         0.347 au  O             1.00      2 P:z             8
                        (       9.437 eV)
   196     196       --         3.820 au  O             1.00      3 P:z             8
                        (     103.939 eV)
   197     197       --         1.071 au  O             1.00      1 D:z2            8
                        (      29.134 eV)
   198     198       --         1.071 au  O             1.00      1 D:x2-y2         8
                        (      29.134 eV)
   199     199       --         1.071 au  O             1.00      1 D:xy            8
                        (      29.134 eV)
   200     200       --         1.071 au  O             1.00      1 D:xz            8
                        (      29.134 eV)
   201     201       --         1.071 au  O             1.00      1 D:yz            8
                        (      29.134 eV)
   202     202       --         3.359 au  O             1.00      1 F:z3            8
                        (      91.410 eV)
   203     203       --         3.359 au  O             1.00      1 F:z             8
                        (      91.410 eV)
   204     204       --         3.359 au  O             1.00      1 F:xyz           8
                        (      91.410 eV)
   205     205       --         3.359 au  O             1.00      1 F:z2x           8
                        (      91.410 eV)
   206     206       --         3.359 au  O             1.00      1 F:z2y           8
                        (      91.410 eV)
   207     207       --         3.359 au  O             1.00      1 F:x             8
                        (      91.410 eV)
   208     208       --         3.359 au  O             1.00      1 F:y             8
                        (      91.410 eV)
   209     209      2.000     -14.160 au  N             1.00      1 S               9
                        (    -385.319 eV)
   210     210      2.000      -0.678 au  N             1.00      2 S               9
                        (     -18.450 eV)
   211     211       --         0.517 au  N             1.00      3 S               9
                        (      14.073 eV)
   212     212       --         6.872 au  N             1.00      4 S               9
                        (     186.990 eV)
   213     213       --        63.432 au  N             1.00      5 S               9
                        (    1726.082 eV)
   214     214      1.000      -0.260 au  N             1.00      1 P:x             9
                        (      -7.062 eV)
   215     215       --         0.281 au  N             1.00      2 P:x             9
                        (       7.649 eV)
   216     216       --         3.275 au  N             1.00      3 P:x             9
                        (      89.105 eV)
   217     217      1.000      -0.260 au  N             1.00      1 P:y             9
                        (      -7.062 eV)
   218     218       --         0.281 au  N             1.00      2 P:y             9
                        (       7.649 eV)
   219     219       --         3.275 au  N             1.00      3 P:y             9
                        (      89.105 eV)
   220     220      1.000      -0.260 au  N             1.00      1 P:z             9
                        (      -7.062 eV)
   221     221       --         0.281 au  N             1.00      2 P:z             9
                        (       7.649 eV)
   222     222       --         3.275 au  N             1.00      3 P:z             9
                        (      89.105 eV)
   223     223       --         1.250 au  N             1.00      1 D:z2            9
                        (      34.005 eV)
   224     224       --         1.250 au  N             1.00      1 D:x2-y2         9
                        (      34.005 eV)
   225     225       --         1.250 au  N             1.00      1 D:xy            9
                        (      34.005 eV)
   226     226       --         1.250 au  N             1.00      1 D:xz            9
                        (      34.005 eV)
   227     227       --         1.250 au  N             1.00      1 D:yz            9
                        (      34.005 eV)
   228     228       --         4.013 au  N             1.00      1 F:z3            9
                        (     109.190 eV)
   229     229       --         4.013 au  N             1.00      1 F:z             9
                        (     109.190 eV)
   230     230       --         4.013 au  N             1.00      1 F:xyz           9
                        (     109.190 eV)
   231     231       --         4.013 au  N             1.00      1 F:z2x           9
                        (     109.190 eV)
   232     232       --         4.013 au  N             1.00      1 F:z2y           9
                        (     109.190 eV)
   233     233       --         4.013 au  N             1.00      1 F:x             9
                        (     109.190 eV)
   234     234       --         4.013 au  N             1.00      1 F:y             9
                        (     109.190 eV)
   235     235      2.000     -14.160 au  N             1.00      1 S              10
                        (    -385.319 eV)
   236     236      2.000      -0.678 au  N             1.00      2 S              10
                        (     -18.450 eV)
   237     237       --         0.517 au  N             1.00      3 S              10
                        (      14.073 eV)
   238     238       --         6.872 au  N             1.00      4 S              10
                        (     186.990 eV)
   239     239       --        63.432 au  N             1.00      5 S              10
                        (    1726.082 eV)
   240     240      1.000      -0.260 au  N             1.00      1 P:x            10
                        (      -7.062 eV)
   241     241       --         0.281 au  N             1.00      2 P:x            10
                        (       7.649 eV)
   242     242       --         3.275 au  N             1.00      3 P:x            10
                        (      89.105 eV)
   243     243      1.000      -0.260 au  N             1.00      1 P:y            10
                        (      -7.062 eV)
   244     244       --         0.281 au  N             1.00      2 P:y            10
                        (       7.649 eV)
   245     245       --         3.275 au  N             1.00      3 P:y            10
                        (      89.105 eV)
   246     246      1.000      -0.260 au  N             1.00      1 P:z            10
                        (      -7.062 eV)
   247     247       --         0.281 au  N             1.00      2 P:z            10
                        (       7.649 eV)
   248     248       --         3.275 au  N             1.00      3 P:z            10
                        (      89.105 eV)
   249     249       --         1.250 au  N             1.00      1 D:z2           10
                        (      34.005 eV)
   250     250       --         1.250 au  N             1.00      1 D:x2-y2        10
                        (      34.005 eV)
   251     251       --         1.250 au  N             1.00      1 D:xy           10
                        (      34.005 eV)
   252     252       --         1.250 au  N             1.00      1 D:xz           10
                        (      34.005 eV)
   253     253       --         1.250 au  N             1.00      1 D:yz           10
                        (      34.005 eV)
   254     254       --         4.013 au  N             1.00      1 F:z3           10
                        (     109.190 eV)
   255     255       --         4.013 au  N             1.00      1 F:z            10
                        (     109.190 eV)
   256     256       --         4.013 au  N             1.00      1 F:xyz          10
                        (     109.190 eV)
   257     257       --         4.013 au  N             1.00      1 F:z2x          10
                        (     109.190 eV)
   258     258       --         4.013 au  N             1.00      1 F:z2y          10
                        (     109.190 eV)
   259     259       --         4.013 au  N             1.00      1 F:x            10
                        (     109.190 eV)
   260     260       --         4.013 au  N             1.00      1 F:y            10
                        (     109.190 eV)
   261     261      2.000     -14.160 au  N             1.00      1 S              11
                        (    -385.319 eV)
   262     262      2.000      -0.678 au  N             1.00      2 S              11
                        (     -18.450 eV)
   263     263       --         0.517 au  N             1.00      3 S              11
                        (      14.073 eV)
   264     264       --         6.872 au  N             1.00      4 S              11
                        (     186.990 eV)
   265     265       --        63.432 au  N             1.00      5 S              11
                        (    1726.082 eV)
   266     266      1.000      -0.260 au  N             1.00      1 P:x            11
                        (      -7.062 eV)
   267     267       --         0.281 au  N             1.00      2 P:x            11
                        (       7.649 eV)
   268     268       --         3.275 au  N             1.00      3 P:x            11
                        (      89.105 eV)
   269     269      1.000      -0.260 au  N             1.00      1 P:y            11
                        (      -7.062 eV)
   270     270       --         0.281 au  N             1.00      2 P:y            11
                        (       7.649 eV)
   271     271       --         3.275 au  N             1.00      3 P:y            11
                        (      89.105 eV)
   272     272      1.000      -0.260 au  N             1.00      1 P:z            11
                        (      -7.062 eV)
   273     273       --         0.281 au  N             1.00      2 P:z            11
                        (       7.649 eV)
   274     274       --         3.275 au  N             1.00      3 P:z            11
                        (      89.105 eV)
   275     275       --         1.250 au  N             1.00      1 D:z2           11
                        (      34.005 eV)
   276     276       --         1.250 au  N             1.00      1 D:x2-y2        11
                        (      34.005 eV)
   277     277       --         1.250 au  N             1.00      1 D:xy           11
                        (      34.005 eV)
   278     278       --         1.250 au  N             1.00      1 D:xz           11
                        (      34.005 eV)
   279     279       --         1.250 au  N             1.00      1 D:yz           11
                        (      34.005 eV)
   280     280       --         4.013 au  N             1.00      1 F:z3           11
                        (     109.190 eV)
   281     281       --         4.013 au  N             1.00      1 F:z            11
                        (     109.190 eV)
   282     282       --         4.013 au  N             1.00      1 F:xyz          11
                        (     109.190 eV)
   283     283       --         4.013 au  N             1.00      1 F:z2x          11
                        (     109.190 eV)
   284     284       --         4.013 au  N             1.00      1 F:z2y          11
                        (     109.190 eV)
   285     285       --         4.013 au  N             1.00      1 F:x            11
                        (     109.190 eV)
   286     286       --         4.013 au  N             1.00      1 F:y            11
                        (     109.190 eV)
   287     287      1.000      -0.240 au  H             1.00      1 S              12
                        (      -6.532 eV)
   288     288       --         0.088 au  H             1.00      2 S              12
                        (       2.394 eV)
   289     289       --         1.502 au  H             1.00      3 S              12
                        (      40.869 eV)
   290     290       --         0.406 au  H             1.00      1 P:x            12
                        (      11.051 eV)
   291     291       --         0.406 au  H             1.00      1 P:y            12
                        (      11.051 eV)
   292     292       --         0.406 au  H             1.00      1 P:z            12
                        (      11.051 eV)
   293     293       --         2.569 au  H             1.00      1 D:z2           12
                        (      69.917 eV)
   294     294       --         2.569 au  H             1.00      1 D:x2-y2        12
                        (      69.917 eV)
   295     295       --         2.569 au  H             1.00      1 D:xy           12
                        (      69.917 eV)
   296     296       --         2.569 au  H             1.00      1 D:xz           12
                        (      69.917 eV)
   297     297       --         2.569 au  H             1.00      1 D:yz           12
                        (      69.917 eV)
   298     298      1.000      -0.240 au  H             1.00      1 S              13
                        (      -6.532 eV)
   299     299       --         0.088 au  H             1.00      2 S              13
                        (       2.394 eV)
   300     300       --         1.502 au  H             1.00      3 S              13
                        (      40.869 eV)
   301     301       --         0.406 au  H             1.00      1 P:x            13
                        (      11.051 eV)
   302     302       --         0.406 au  H             1.00      1 P:y            13
                        (      11.051 eV)
   303     303       --         0.406 au  H             1.00      1 P:z            13
                        (      11.051 eV)
   304     304       --         2.569 au  H             1.00      1 D:z2           13
                        (      69.917 eV)
   305     305       --         2.569 au  H             1.00      1 D:x2-y2        13
                        (      69.917 eV)
   306     306       --         2.569 au  H             1.00      1 D:xy           13
                        (      69.917 eV)
   307     307       --         2.569 au  H             1.00      1 D:xz           13
                        (      69.917 eV)
   308     308       --         2.569 au  H             1.00      1 D:yz           13
                        (      69.917 eV)
   309     309      1.000      -0.240 au  H             1.00      1 S              14
                        (      -6.532 eV)
   310     310       --         0.088 au  H             1.00      2 S              14
                        (       2.394 eV)
   311     311       --         1.502 au  H             1.00      3 S              14
                        (      40.869 eV)
   312     312       --         0.406 au  H             1.00      1 P:x            14
                        (      11.051 eV)
   313     313       --         0.406 au  H             1.00      1 P:y            14
                        (      11.051 eV)
   314     314       --         0.406 au  H             1.00      1 P:z            14
                        (      11.051 eV)
   315     315       --         2.569 au  H             1.00      1 D:z2           14
                        (      69.917 eV)
   316     316       --         2.569 au  H             1.00      1 D:x2-y2        14
                        (      69.917 eV)
   317     317       --         2.569 au  H             1.00      1 D:xy           14
                        (      69.917 eV)
   318     318       --         2.569 au  H             1.00      1 D:xz           14
                        (      69.917 eV)
   319     319       --         2.569 au  H             1.00      1 D:yz           14
                        (      69.917 eV)
   320     320      1.000      -0.240 au  H             1.00      1 S              15
                        (      -6.532 eV)
   321     321       --         0.088 au  H             1.00      2 S              15
                        (       2.394 eV)
   322     322       --         1.502 au  H             1.00      3 S              15
                        (      40.869 eV)
   323     323       --         0.406 au  H             1.00      1 P:x            15
                        (      11.051 eV)
   324     324       --         0.406 au  H             1.00      1 P:y            15
                        (      11.051 eV)
   325     325       --         0.406 au  H             1.00      1 P:z            15
                        (      11.051 eV)
   326     326       --         2.569 au  H             1.00      1 D:z2           15
                        (      69.917 eV)
   327     327       --         2.569 au  H             1.00      1 D:x2-y2        15
                        (      69.917 eV)
   328     328       --         2.569 au  H             1.00      1 D:xy           15
                        (      69.917 eV)
   329     329       --         2.569 au  H             1.00      1 D:xz           15
                        (      69.917 eV)
   330     330       --         2.569 au  H             1.00      1 D:yz           15
                        (      69.917 eV)
   331     331      1.000      -0.240 au  H             1.00      1 S              16
                        (      -6.532 eV)
   332     332       --         0.088 au  H             1.00      2 S              16
                        (       2.394 eV)
   333     333       --         1.502 au  H             1.00      3 S              16
                        (      40.869 eV)
   334     334       --         0.406 au  H             1.00      1 P:x            16
                        (      11.051 eV)
   335     335       --         0.406 au  H             1.00      1 P:y            16
                        (      11.051 eV)
   336     336       --         0.406 au  H             1.00      1 P:z            16
                        (      11.051 eV)
   337     337       --         2.569 au  H             1.00      1 D:z2           16
                        (      69.917 eV)
   338     338       --         2.569 au  H             1.00      1 D:x2-y2        16
                        (      69.917 eV)
   339     339       --         2.569 au  H             1.00      1 D:xy           16
                        (      69.917 eV)
   340     340       --         2.569 au  H             1.00      1 D:xz           16
                        (      69.917 eV)
   341     341       --         2.569 au  H             1.00      1 D:yz           16
                        (      69.917 eV)
   342     342      1.000      -0.240 au  H             1.00      1 S              17
                        (      -6.532 eV)
   343     343       --         0.088 au  H             1.00      2 S              17
                        (       2.394 eV)
   344     344       --         1.502 au  H             1.00      3 S              17
                        (      40.869 eV)
   345     345       --         0.406 au  H             1.00      1 P:x            17
                        (      11.051 eV)
   346     346       --         0.406 au  H             1.00      1 P:y            17
                        (      11.051 eV)
   347     347       --         0.406 au  H             1.00      1 P:z            17
                        (      11.051 eV)
   348     348       --         2.569 au  H             1.00      1 D:z2           17
                        (      69.917 eV)
   349     349       --         2.569 au  H             1.00      1 D:x2-y2        17
                        (      69.917 eV)
   350     350       --         2.569 au  H             1.00      1 D:xy           17
                        (      69.917 eV)
   351     351       --         2.569 au  H             1.00      1 D:xz           17
                        (      69.917 eV)
   352     352       --         2.569 au  H             1.00      1 D:yz           17
                        (      69.917 eV)
   353     353      1.000      -0.240 au  H             1.00      1 S              18
                        (      -6.532 eV)
   354     354       --         0.088 au  H             1.00      2 S              18
                        (       2.394 eV)
   355     355       --         1.502 au  H             1.00      3 S              18
                        (      40.869 eV)
   356     356       --         0.406 au  H             1.00      1 P:x            18
                        (      11.051 eV)
   357     357       --         0.406 au  H             1.00      1 P:y            18
                        (      11.051 eV)
   358     358       --         0.406 au  H             1.00      1 P:z            18
                        (      11.051 eV)
   359     359       --         2.569 au  H             1.00      1 D:z2           18
                        (      69.917 eV)
   360     360       --         2.569 au  H             1.00      1 D:x2-y2        18
                        (      69.917 eV)
   361     361       --         2.569 au  H             1.00      1 D:xy           18
                        (      69.917 eV)
   362     362       --         2.569 au  H             1.00      1 D:xz           18
                        (      69.917 eV)
   363     363       --         2.569 au  H             1.00      1 D:yz           18
                        (      69.917 eV)



 ================================
 (Slater-type)  F U N C T I O N S  ***  (Basis and Fit)  ***
 ================================
  

 Atom Type    1  (C)
 ==============

 Valence Basis Sets:  10
 -----------------------
   1 S    7.680000
   1 S    5.000000
   2 S    1.280000
   2 S    2.100000
   2 S    4.600000
   2 P    0.820000
   2 P    1.480000
   2 P    2.940000
   3 D    2.200000
   4 F    3.300000

 Atom Type    2  (O)
 ==============

 Valence Basis Sets:  10
 -----------------------
   1 S    9.800000
   1 S    6.800000
   2 S    7.580000
   2 S    2.880000
   2 S    1.720000
   2 P    4.080000
   2 P    2.080000
   2 P    1.120000
   3 D    2.000000
   4 F    3.000000

 Atom Type    3  (N)
 ==============

 Valence Basis Sets:  10
 -----------------------
   1 S    8.740000
   1 S    5.900000
   2 S    5.150000
   2 S    2.500000
   2 S    1.500000
   2 P    3.680000
   2 P    1.880000
   2 P    1.000000
   3 D    2.200000
   4 F    3.300000

 Atom Type    4  (H)
 ==============

 Valence Basis Sets:   5
 -----------------------
   1 S    0.690000
   1 S    0.920000
   1 S    1.580000
   2 P    1.250000
   3 D    2.500000


 BAS: List of all Elementary Cartesian Basis Functions
 =====================================================

 The numbering in the list below (to the right of the function characteristics) is referred
 to in print-outs of MO eigenvectors and Mulliken populations in the BAS representation
 (as contrasted to the SFO representation).

 Notes:
 1. The functions are characterized by a polynomial prefactor (powers of x,y,z and r) and
    an exponential decay factor alpha.
 2. Since the basis sets are specific for an atom TYPE, the individual functions occur on
    all atoms of that type.
 3. The word 'Core' in the left margin signals that it is a Core Function (CF) : not a
    degree of freedom in the valence set, but only used to ensure orthogonalization of
    the other valence basis functions on the frozen Core Orbitals.


 (power of) X  Y  Z  R     Alpha  on Atom
            ==========     =====     ==========

 C                                    1    2    3    4    5    6
                                  ---------------------------------------------------------------------------
            0  0  0  0     7.680      1   31   61   91  121  151
            0  0  0  0     5.000      2   32   62   92  122  152
            0  0  0  1     1.280      3   33   63   93  123  153
            0  0  0  1     2.100      4   34   64   94  124  154
            0  0  0  1     4.600      5   35   65   95  125  155
            1  0  0  0     0.820      6   36   66   96  126  156
            0  1  0  0     0.820      7   37   67   97  127  157
            0  0  1  0     0.820      8   38   68   98  128  158
            1  0  0  0     1.480      9   39   69   99  129  159
            0  1  0  0     1.480     10   40   70  100  130  160
            0  0  1  0     1.480     11   41   71  101  131  161
            1  0  0  0     2.940     12   42   72  102  132  162
            0  1  0  0     2.940     13   43   73  103  133  163
            0  0  1  0     2.940     14   44   74  104  134  164
            2  0  0  0     2.200     15   45   75  105  135  165
            1  1  0  0     2.200     16   46   76  106  136  166
            1  0  1  0     2.200     17   47   77  107  137  167
            0  2  0  0     2.200     18   48   78  108  138  168
            0  1  1  0     2.200     19   49   79  109  139  169
            0  0  2  0     2.200     20   50   80  110  140  170
            3  0  0  0     3.300     21   51   81  111  141  171
            2  1  0  0     3.300     22   52   82  112  142  172
            2  0  1  0     3.300     23   53   83  113  143  173
            1  2  0  0     3.300     24   54   84  114  144  174
            1  1  1  0     3.300     25   55   85  115  145  175
            1  0  2  0     3.300     26   56   86  116  146  176
            0  3  0  0     3.300     27   57   87  117  147  177
            0  2  1  0     3.300     28   58   88  118  148  178
            0  1  2  0     3.300     29   59   89  119  149  179
            0  0  3  0     3.300     30   60   90  120  150  180

 O                                    7    8
                                  ---------------------------------------------------------------------------
            0  0  0  0     9.800    181  211
            0  0  0  0     6.800    182  212
            0  0  0  1     7.580    183  213
            0  0  0  1     2.880    184  214
            0  0  0  1     1.720    185  215
            1  0  0  0     4.080    186  216
            0  1  0  0     4.080    187  217
            0  0  1  0     4.080    188  218
            1  0  0  0     2.080    189  219
            0  1  0  0     2.080    190  220
            0  0  1  0     2.080    191  221
            1  0  0  0     1.120    192  222
            0  1  0  0     1.120    193  223
            0  0  1  0     1.120    194  224
            2  0  0  0     2.000    195  225
            1  1  0  0     2.000    196  226
            1  0  1  0     2.000    197  227
            0  2  0  0     2.000    198  228
            0  1  1  0     2.000    199  229
            0  0  2  0     2.000    200  230
            3  0  0  0     3.000    201  231
            2  1  0  0     3.000    202  232
            2  0  1  0     3.000    203  233
            1  2  0  0     3.000    204  234
            1  1  1  0     3.000    205  235
            1  0  2  0     3.000    206  236
            0  3  0  0     3.000    207  237
            0  2  1  0     3.000    208  238
            0  1  2  0     3.000    209  239
            0  0  3  0     3.000    210  240

 N                                    9   10   11
                                  ---------------------------------------------------------------------------
            0  0  0  0     8.740    241  271  301
            0  0  0  0     5.900    242  272  302
            0  0  0  1     5.150    243  273  303
            0  0  0  1     2.500    244  274  304
            0  0  0  1     1.500    245  275  305
            1  0  0  0     3.680    246  276  306
            0  1  0  0     3.680    247  277  307
            0  0  1  0     3.680    248  278  308
            1  0  0  0     1.880    249  279  309
            0  1  0  0     1.880    250  280  310
            0  0  1  0     1.880    251  281  311
            1  0  0  0     1.000    252  282  312
            0  1  0  0     1.000    253  283  313
            0  0  1  0     1.000    254  284  314
            2  0  0  0     2.200    255  285  315
            1  1  0  0     2.200    256  286  316
            1  0  1  0     2.200    257  287  317
            0  2  0  0     2.200    258  288  318
            0  1  1  0     2.200    259  289  319
            0  0  2  0     2.200    260  290  320
            3  0  0  0     3.300    261  291  321
            2  1  0  0     3.300    262  292  322
            2  0  1  0     3.300    263  293  323
            1  2  0  0     3.300    264  294  324
            1  1  1  0     3.300    265  295  325
            1  0  2  0     3.300    266  296  326
            0  3  0  0     3.300    267  297  327
            0  2  1  0     3.300    268  298  328
            0  1  2  0     3.300    269  299  329
            0  0  3  0     3.300    270  300  330

 H                                   12   13   14   15   16   17   18
                                  ---------------------------------------------------------------------------
            0  0  0  0     0.690    331  343  355  367  379  391  403
            0  0  0  0     0.920    332  344  356  368  380  392  404
            0  0  0  0     1.580    333  345  357  369  381  393  405
            1  0  0  0     1.250    334  346  358  370  382  394  406
            0  1  0  0     1.250    335  347  359  371  383  395  407
            0  0  1  0     1.250    336  348  360  372  384  396  408
            2  0  0  0     2.500    337  349  361  373  385  397  409
            1  1  0  0     2.500    338  350  362  374  386  398  410
            1  0  1  0     2.500    339  351  363  375  387  399  411
            0  2  0  0     2.500    340  352  364  376  388  400  412
            0  1  1  0     2.500    341  353  365  377  389  401  413
            0  0  2  0     2.500    342  354  366  378  390  402  414

 Total number of charge fitting functions (nprimf)      1274
 Total number of Cartesian basis functions (naos)        414
 Total number of Cartesian core functions  (ncos)          0

 ***************************************************************************************************



                                              ***********************
                                              *  T E C H N I C A L  *
                                              ***********************
  



 =============================================================
 P A R A L L E L I Z A T I O N  and  V E C T O R I Z A T I O N
 =============================================================
  
 Nr of parallel processes:                                1
 Maximum vector length in NumInt loops:                 128



 =====================
 S C F   U P D A T E S
 =====================
  
 Max. nr. of cycles:                               200
 Convergence criterion:                              0.0000010000
   secondary criterion:                              0.0010000000

 Mix parameter (when DIIS does not apply):           0.2000000000
 Mixed ADIIS+SDIIS will be used                  
    Max number of expansion vectors:                10
    Pure ADIIS when Max([F,P]) is above              0.1000000000
    Pure SDIIS when Max([F,P]) is below              0.0010000000
 Automatic ElectronSmearing (in case of problematic SCF convergence) disabled



 =================
 P R E C I S I O N  ***  (General: NumInt, NeglectFunctionTails, ...)  ***
 =================
  

 NumInt:           Target precision:                 4.0000000000
 -------           Initial precision:                4.0000000000
                   Min. precision (optimization):    4.0000000000

 Neglect Functions:          Basis functions:        0.1000000000E-05
 ------------------          Fit functions:          0.1000000000E-05



 ===========================
 L I N E A R   S C A L I N G
 ===========================
  

 Cut-off radii density fit:                        0.1000000000E-07
 Overlap cut-off criterion AO matrix elements:     0.1000000000E-05
 Cut-offs for Coulomb potential and fitted density:0.1000000000E-07
 Cut-off criterion for Coulomb multipole terms:    0.1000000000E-07
 Progressive Convergence parameter:                 0.000000000    
 ***************************************************************************************************



                                            ***************************
                                            *  C O M P U T A T I O N  *
                                            ***************************
  

 Number of elements of the density matrix on this node (used, total):     85905     85905



 ===========================================
 Numerical Integration : Fuzzy Cells (Becke)
 ===========================================
  
 Becke grid quality: NORMAL         
  
 Lebedev angular grid order:             min:  11 max:  23
 Nr. of radial points:                   min:  46 max:  52

 Total nr. of points:     118531
 Nr. of blocks:              927
 Block length:               128
 Nr. of dummy points:        125


 Test of Precision of the Numerical Integration Grid
 ===================================================

 Integral of the Total Core Density:                   0.00000000000000



 ========================
 Density Fitting (zlmFit)
 ========================
  
 ZlmFit Fit Quality: NORMAL         
  
 Max L-expansion:                        min:   6 max:   7
 Nr. of radial interpolation points:     min:  39 max:  54



 =====
 S C F  ***  ScaSCF  ***
 =====
  
 Initial density matrix is calculated as sum of fragments

 CYCLE    1
 SCF Error: norm([F,P])=      7.982885387394, max([F,P])=      1.500020149723
 orbitals (Q,E):
 ---------------
 A :31...50          ( 2.00    -0.5136)  ( 2.00    -0.4956)  ( 2.00    -0.4826)  ( 2.00    -0.4796)
                     ( 2.00    -0.4718)  ( 2.00    -0.4498)  ( 2.00    -0.4120)  ( 2.00    -0.3966)
                     ( 2.00    -0.3852)  ( 2.00    -0.3390)  ( 0.00    -0.2521)  ( 0.00    -0.2009)
                     ( 0.00    -0.1458)  ( 0.00    -0.1274)  ( 0.00    -0.0812)  ( 0.00    -0.0676)
                     ( 0.00    -0.0420)  ( 0.00    -0.0329)  ( 0.00    -0.0224)  ( 0.00    -0.0153)

 CYCLE    2
   MIX coefficients:  0.8000  0.2000
 SCF Error: norm([F,P])=      1.484010987190, max([F,P])=      0.181904212329
 orbitals (Q,E):
 ---------------
 A :31...41          ( 2.00    -0.4669)  ( 2.00    -0.4386)  ( 2.00    -0.4330)  ( 2.00    -0.4230)
                     ( 2.00    -0.4044)  ( 2.00    -0.3980)  ( 2.00    -0.3540)  ( 2.00    -0.3440)
                     ( 2.00    -0.3292)  ( 2.00    -0.2978)  ( 0.00    -0.2287)

 CYCLE    3
  SDIIS (wt  0.000): -0.3944  1.3944
 A-DIIS (wt  1.000):  0.0000  1.0000
  DIIS coefficients:  0.0000  1.0000
 SCF Error: norm([F,P])=      0.660480453669, max([F,P])=      0.099262074597
 orbitals (Q,E):
 ---------------
 A :31...41          ( 2.00    -0.3084)  ( 2.00    -0.3067)  ( 2.00    -0.2970)  ( 2.00    -0.2887)
                     ( 2.00    -0.2716)  ( 2.00    -0.2613)  ( 2.00    -0.2172)  ( 2.00    -0.1896)
                     ( 2.00    -0.1737)  ( 2.00    -0.1657)  ( 0.00    -0.1132)

 CYCLE    4
  SDIIS (wt  0.000):  0.0774  0.4773  0.4453
 A-DIIS (wt  1.000):  0.0000  0.6364  0.3636
  DIIS coefficients:  0.0000  0.6364  0.3636
 SCF Error: norm([F,P])=      0.927050958543, max([F,P])=      0.154146336799
 orbitals (Q,E):
 ---------------
 A :31...41          ( 2.00    -0.3704)  ( 2.00    -0.3638)  ( 2.00    -0.3515)  ( 2.00    -0.3326)
                     ( 2.00    -0.3119)  ( 2.00    -0.3050)  ( 2.00    -0.2727)  ( 2.00    -0.2477)
                     ( 2.00    -0.2430)  ( 2.00    -0.2119)  ( 0.00    -0.1502)

 CYCLE    5
  SDIIS (wt  0.470):  0.0447  0.3558  0.3130  0.2864
 A-DIIS (wt  0.530):  0.0000  0.1253  0.0582  0.8165
  DIIS coefficients:  0.0210  0.2337  0.1780  0.5673
 SCF Error: norm([F,P])=      0.363925069156, max([F,P])=      0.053456768355
 orbitals (Q,E):
 ---------------
 A :31...41          ( 2.00    -0.3817)  ( 2.00    -0.3682)  ( 2.00    -0.3607)  ( 2.00    -0.3505)
                     ( 2.00    -0.3344)  ( 2.00    -0.3314)  ( 2.00    -0.3020)  ( 2.00    -0.2554)
                     ( 2.00    -0.2435)  ( 2.00    -0.2257)  ( 0.00    -0.1685)

 CYCLE    6
  SDIIS (wt  0.000): -0.0009  0.2008  0.1039  0.4883  0.2080
 A-DIIS (wt  1.000):  0.0000  0.0000  0.0000  0.6949  0.3051
  DIIS coefficients:  0.0000  0.0000  0.0000  0.6949  0.3051
 SCF Error: norm([F,P])=      0.699467637192, max([F,P])=      0.118758418604
 orbitals (Q,E):
 ---------------
 A :31...41          ( 2.00    -0.3821)  ( 2.00    -0.3744)  ( 2.00    -0.3643)  ( 2.00    -0.3554)
                     ( 2.00    -0.3398)  ( 2.00    -0.3335)  ( 2.00    -0.2882)  ( 2.00    -0.2648)
                     ( 2.00    -0.2480)  ( 2.00    -0.2385)  ( 0.00    -0.1740)

 CYCLE    7
  SDIIS (wt  0.745):  0.0095  0.0740  0.0528  0.3977  0.1174  0.3487
 A-DIIS (wt  0.255):  0.0000  0.0000  0.0000  0.2432  0.0000  0.7568
  DIIS coefficients:  0.0071  0.0551  0.0393  0.3583  0.0875  0.4527
 SCF Error: norm([F,P])=      0.166537693998, max([F,P])=      0.026224279953
 orbitals (Q,E):
 ---------------
 A :31...41          ( 2.00    -0.3773)  ( 2.00    -0.3664)  ( 2.00    -0.3589)  ( 2.00    -0.3504)
                     ( 2.00    -0.3273)  ( 2.00    -0.3162)  ( 2.00    -0.2748)  ( 2.00    -0.2645)
                     ( 2.00    -0.2464)  ( 2.00    -0.2265)  ( 0.00    -0.1642)

 CYCLE    8
[...]
                                    3.29%     2 S             -18.450  2.00    10 N
                                    2.77%     1 S              -6.532  1.00    14 H
                                   -2.32%     2 P:x             4.589  0.00     3 C
                                   -2.27%     2 P:x             4.589  0.00     1 C
                                   -1.91%     3 S              14.073  0.00    10 N
                                    1.88%     1 P:x            -7.062  1.00     9 N
                                   -1.84%     2 P:y             4.589  0.00     2 C
                                   -1.68%     2 P:x             4.589  0.00     5 C
                                    1.47%     2 P:z             4.589  0.00     3 C
                                    1.44%     2 S               2.394  0.00    13 H
                                   -1.41%     2 P:y             4.589  0.00     3 C
                                   -1.20%     2 P:y             7.649  0.00    11 N
                                    1.11%     1 P:x            -5.239  0.67     4 C
                                    1.06%     1 S              -6.532  1.00    16 H
                                    1.02%     1 P:y            11.051  0.00    18 H
                                   -1.01%     1 P:x            -5.239  0.67     3 C
       0.167  0.00    47 A         23.18%     2 S               2.394  0.00    16 H
                                   22.32%     2 S               2.394  0.00    14 H
                                   17.66%     1 S              -6.532  1.00    16 H
                                   10.93%     1 S              -6.532  1.00    14 H
                                   10.81%     2 S               2.394  0.00    15 H
                                    8.39%     1 S              -6.532  1.00    18 H
                                    7.55%     2 S               2.394  0.00    17 H
                                    7.45%     2 S               2.394  0.00    12 H
                                   -6.50%     2 P:y             4.589  0.00     3 C
                                   -6.09%     2 P:x             4.589  0.00     2 C
                                   -5.73%     2 P:x             4.589  0.00     5 C
                                    5.49%     1 S              -6.532  1.00    15 H
                                   -5.13%     2 P:x             4.589  0.00     4 C
                                    4.93%     1 S              -6.532  1.00    12 H
                                   -4.70%     2 P:y             4.589  0.00     4 C
                                   -4.67%     2 P:x             4.589  0.00     1 C
                                    3.89%     1 S              -6.532  1.00    17 H
                                    3.30%     2 P:y             4.589  0.00     2 C
                                   -2.92%     2 P:z             4.589  0.00     3 C
                                    2.05%     2 P:x             7.649  0.00     9 N
                                   -2.03%     1 P:x            -5.239  0.67     2 C
                                   -1.99%     3 S              10.158  0.00     5 C
                                   -1.63%     3 S              10.158  0.00     1 C
                                   -1.53%     1 P:y            -5.239  0.67     4 C
                                   -1.49%     2 P:y             7.649  0.00     9 N
                                    1.39%     2 S             -13.620  2.00     6 C
                                    1.38%     2 S               2.394  0.00    18 H
                                   -1.37%     1 P:x            -5.239  0.67     4 C
                                   -1.33%     2 P:y             4.589  0.00     5 C
                                    1.24%     2 S             -13.620  2.00     5 C
                                   -1.18%     2 P:z             4.589  0.00     5 C
                                    1.15%     1 P:y            -5.239  0.67     2 C
                                    1.11%     2 S             -13.620  2.00     4 C
                                    1.06%     1 P:y            -5.239  0.67     6 C
                                    1.05%     2 S               2.394  0.00    13 H
                                    1.05%     2 P:x             4.589  0.00     3 C
                                    1.04%     1 P:x            -7.062  1.00    11 N
       0.819  0.00    48 A         19.03%     1 S              -6.532  1.00    14 H
                                  -14.49%     2 P:x             4.589  0.00     1 C
                                   14.14%     2 S               2.394  0.00    14 H
                                  -10.97%     2 P:x             4.589  0.00     5 C
                                   10.10%     1 S              -6.532  1.00    13 H
                                    9.82%     1 S              -6.532  1.00    16 H
                                    9.31%     1 S              -6.532  1.00    17 H
                                    7.48%     2 S               2.394  0.00    16 H
                                   -7.44%     2 P:y             4.589  0.00     1 C
                                    4.95%     2 S               2.394  0.00    12 H
                                    4.82%     2 S             -13.620  2.00     6 C
                                    4.70%     2 S               2.394  0.00    15 H
                                    3.61%     1 P:y            -5.239  0.67     1 C
                                    3.27%     1 P:z            -5.239  0.67     2 C
                                    3.07%     1 P:x            -5.239  0.67     3 C
                                    2.62%     2 S               2.394  0.00    17 H
                                    2.50%     1 P:x            -5.239  0.67     5 C
                                   -2.48%     3 S              14.073  0.00    11 N
                                    2.35%     1 S              -6.532  1.00    15 H
                                    2.29%     2 P:x             7.649  0.00     9 N
                                    2.11%     2 S               2.394  0.00    13 H
                                   -1.96%     2 P:y             4.589  0.00     5 C
                                   -1.95%     3 S              14.073  0.00    10 N
                                    1.90%     1 S              -6.532  1.00    18 H
                                    1.82%     1 P:z            -5.239  0.67     6 C
                                    1.78%     2 P:x             4.589  0.00     6 C
                                    1.74%     3 S              10.158  0.00     6 C
                                    1.61%     1 P:x            -7.062  1.00    11 N
                                    1.57%     3 S              40.869  0.00    13 H
                                    1.40%     2 S             -18.450  2.00    10 N
                                    1.33%     1 P:y            -5.239  0.67     5 C
                                    1.26%     3 S              40.869  0.00    17 H
                                    1.22%     1 P:x            -7.062  1.00    10 N
                                   -1.18%     2 P:y             7.649  0.00     9 N
                                    1.15%     1 P:y            -7.062  1.00     9 N
                                    1.13%     2 P:z             4.589  0.00     1 C
                                    1.05%     1 P:x            -5.239  0.67     1 C



 =======================================================================
 Electrostatic potential at the Nuclei due to electrons and other nuclei
 =======================================================================
  
         Atom                  Potential
         ----                  ---------
     1)   C                  14.74874555
     2)   C                  14.66166254
     3)   O                  22.37259900
     4)   C                  14.69697448
     5)   C                  14.66176019
     6)   C                  14.75422425
     7)   O                  22.37767907
     8)   N                  18.25490713
     9)   N                  18.34741097
    10)   C                  14.73489645
    11)   N                  18.43627274
    12)   H                   1.06390405
    13)   H                   1.05376140
    14)   H                   1.07061547
    15)   H                   1.07711752
    16)   H                   1.06794097
    17)   H                   1.06008352
    18)   H                   0.94545408
 Mulliken charges used for AMS results%charges...


    =====================
     CALCULATION RESULTS
    =====================

Energy (hartree)            -4.04120156


--------------
Atomic charges
--------------
  Index   Atom    Charge
      1      C    0.5723
      2      C    0.4666
      3      O   -0.5208
      4      C    0.0315
      5      C    0.4183
      6      C    0.6129
      7      O   -0.4539
      8      N    0.1843
      9      N   -0.2365
     10      C    0.2212
     11      N   -0.2918
     12      H   -0.1584
     13      H   -0.1564
     14      H   -0.1822
     15      H   -0.1553
     16      H   -0.1689
     17      H   -0.1900
     18      H    0.0071


Dipole moment vector    (Debye):     3.11714766    1.98909566   -3.55427750
              magnitude (Debye):     5.12893747


-----------------------
Molecular orbitals info
-----------------------
n orbitals:              363
n spin:                    1

Note: only printing virtual orbitals with
      energy smaller than HOMO + 100. eV

HOMO (eV):              -6.2056
LUMO (eV):              -4.4889
HOMO-LUMO gap (eV):      1.7167

   Index   Energy (eV)    Occupation
     228       93.6693         0.000       
     227       93.5860         0.000       
     226       93.1090         0.000       
     225       92.3615         0.000       
     224       92.0629         0.000       
     223       91.7779         0.000       
     222       91.4076         0.000       
     221       90.8305         0.000       
     220       90.6031         0.000       
     219       90.3880         0.000       
     218       89.4169         0.000       
     217       88.7543         0.000       
     216       87.6073         0.000       
     215       86.2739         0.000       
     214       85.9434         0.000       
     213       84.6440         0.000       
     212       84.0159         0.000       
     211       82.5640         0.000       
     210       82.3986         0.000       
     209       81.3137         0.000       
     208       80.6965         0.000       
     207       79.8348         0.000       
     206       79.3866         0.000       
     205       78.7813         0.000       
     204       78.1167         0.000       
     203       77.6480         0.000       
     202       77.4822         0.000       
     201       77.0656         0.000       
     200       76.3648         0.000       
     199       75.8957         0.000       
     198       75.5467         0.000       
     197       75.1670         0.000       
     196       74.6032         0.000       
     195       74.2332         0.000       
     194       72.2108         0.000       
     193       71.1310         0.000       
     192       70.6791         0.000       
     191       70.0882         0.000       
     190       69.4561         0.000       
     189       68.6398         0.000       
     188       68.1949         0.000       
     187       67.2141         0.000       
     186       66.7814         0.000       
     185       66.3903         0.000       
     184       65.0207         0.000       
     183       64.0060         0.000       
     182       63.7966         0.000       
     181       62.6224         0.000       
     180       62.2499         0.000       
     179       61.0101         0.000       
     178       60.7114         0.000       
     177       60.2837         0.000       
     176       59.1079         0.000       
     175       58.9197         0.000       
     174       57.9144         0.000       
     173       57.1532         0.000       
     172       55.5024         0.000       
     171       55.3730         0.000       
     170       55.0596         0.000       
     169       54.5238         0.000       
     168       53.7420         0.000       
     167       53.4050         0.000       
     166       53.0489         0.000       
     165       52.3502         0.000       
     164       52.1023         0.000       
     163       51.3749         0.000       
     162       50.9918         0.000       
     161       49.5176         0.000       
     160       48.6643         0.000       
     159       48.4279         0.000       
     158       48.2143         0.000       
     157       47.6448         0.000       
     156       46.9952         0.000       
     155       46.7897         0.000       
     154       46.3250         0.000       
     153       45.3708         0.000       
     152       44.9399         0.000       
     151       44.1464         0.000       
     150       43.8946         0.000       
     149       43.0077         0.000       
     148       42.3640         0.000       
     147       41.5225         0.000       
     146       41.3116         0.000       
     145       40.7972         0.000       
     144       39.8601         0.000       
     143       39.5535         0.000       
     142       37.8354         0.000       
     141       37.2752         0.000       
     140       36.9090         0.000       
     139       36.7616         0.000       
     138       36.3026         0.000       
     137       35.7067         0.000       
     136       35.3517         0.000       
     135       35.1251         0.000       
     134       34.7616         0.000       
     133       33.8871         0.000       
     132       33.7865         0.000       
     131       33.2839         0.000       
     130       33.0298         0.000       
     129       32.4100         0.000       
     128       32.3099         0.000       
     127       31.7481         0.000       
     126       31.2303         0.000       
     125       31.0803         0.000       
     124       30.6843         0.000       
     123       30.3742         0.000       
     122       29.8918         0.000       
     121       29.3941         0.000       
     120       29.1933         0.000       
     119       28.5269         0.000       
     118       28.0126         0.000       
     117       27.5405         0.000       
     116       27.2942         0.000       
     115       26.2254         0.000       
     114       26.1336         0.000       
     113       25.9058         0.000       
     112       25.4353         0.000       
     111       24.9232         0.000       
     110       23.6616         0.000       
     109       23.3136         0.000       
     108       22.5431         0.000       
     107       22.4198         0.000       
     106       21.9580         0.000       
     105       21.2376         0.000       
     104       21.1976         0.000       
     103       20.1366         0.000       
     102       19.5520         0.000       
     101       18.9091         0.000       
     100       18.7414         0.000       
      99       18.6810         0.000       
      98       16.7858         0.000       
      97       16.5192         0.000       
      96       16.2128         0.000       
      95       15.8545         0.000       
      94       15.5584         0.000       
      93       14.5813         0.000       
      92       14.2363         0.000       
      91       14.0521         0.000       
      90       13.6228         0.000       
      89       13.0001         0.000       
      88       12.8879         0.000       
      87       12.3190         0.000       
      86       11.8595         0.000       
      85       11.7190         0.000       
      84       11.2492         0.000       
      83       10.8546         0.000       
      82       10.7049         0.000       
      81       10.4960         0.000       
      80       10.0236         0.000       
      79        9.7347         0.000       
      78        9.5110         0.000       
      77        9.2739         0.000       
      76        9.1268         0.000       
      75        8.5454         0.000       
      74        8.1089         0.000       
      73        7.8215         0.000       
      72        7.7001         0.000       
      71        7.5822         0.000       
      70        7.0451         0.000       
      69        6.7809         0.000       
      68        6.5880         0.000       
      67        6.0769         0.000       
      66        5.8811         0.000       
      65        5.5503         0.000       
      64        5.3826         0.000       
      63        4.6643         0.000       
      62        4.4954         0.000       
      61        4.4126         0.000       
      60        4.1152         0.000       
      59        3.9494         0.000       
      58        3.6607         0.000       
      57        3.6005         0.000       
      56        3.0559         0.000       
      55        2.8239         0.000       
      54        2.2234         0.000       
      53        1.8113         0.000       
      52        1.6117         0.000       
      51        1.3070         0.000       
      50        1.0624         0.000       
      49        1.0053         0.000       
      48        0.8195         0.000       
      47        0.1671         0.000       
      46        0.1395         0.000       
      45       -0.5670         0.000       
      44       -0.8532         0.000       
      43       -1.6125         0.000       
      42       -2.8520         0.000       
      41       -4.4889         0.000 < LUMO
      40       -6.2056         2.000 < HOMO
      39       -6.6635         2.000       
      38       -7.1745         2.000       
      37       -7.4966         2.000       
      36       -8.7292         2.000       
      35       -8.9560         2.000       
      34       -9.5297         2.000       
      33       -9.7729         2.000       
      32       -9.9589         2.000       
      31      -10.2834         2.000       
      30      -10.5841         2.000       
      29      -11.2666         2.000       
      28      -11.3608         2.000       
      27      -11.4909         2.000       
      26      -11.8087         2.000       
      25      -12.2192         2.000       
      24      -12.5627         2.000       
      23      -12.8322         2.000       
      22      -14.3441         2.000       
      21      -15.6212         2.000       
      20      -15.9750         2.000       
      19      -18.2354         2.000       
      18      -19.2970         2.000       
      17      -20.0497         2.000       
      16      -21.8416         2.000       
      15      -22.9734         2.000       
      14      -26.9230         2.000       
      13      -27.0097         2.000       
      12      -27.7546         2.000       
      11     -270.9007         2.000       
      10     -271.0284         2.000       
       9     -271.7562         2.000       
       8     -272.5734         2.000       
       7     -273.5366         2.000       
       6     -273.5449         2.000       
       5     -381.5809         2.000       
       4     -383.6045         2.000       
       3     -385.9498         2.000       
       2     -512.1576         2.000       
       1     -512.2569         2.000       

AMS application finished. Exiting.
NORMAL TERMINATION
     Total cpu time:      95.05
  Total system time:       0.84
 Total elapsed time:      96.47
NORMAL TERMINATION
