
 *******************************************************************************
 *                                                                             *
 *  --------------------------------                                           *
 *   Amsterdam Modeling Suite (AMS)              2026.103                      *
 *  --------------------------------                                           *
 *                                               r260501 2026-05-01 873454b5   *
 *                                                                             *
 *                                                                             *
 *                              =================                              *
 *                              |               |                              *
 *                              |     A M S     |                              *
 *                              |               |                              *
 *                              =================                              *
 *                                                                             *
 *                                                                             *
 *   Online information and documentation:  https://www.scm.com/support/       *
 *   E-mail:  support@scm.com   info@scm.com                                   *
 *                                                                             *
 *   Scientific publications using AMS results must be properly referenced     *
 *   See the User Manuals (or the web site) for recommended citations          *
 *   The terms and conditions of the End User License Agreement apply to       *
 *   the use of AMS, https://www.scm.com/license-terms/                        *
 *                                                                             *
 **********************  x86_64_linux_intel / intelmpi  ************************
 
 Licensed to: Jong-June Jeon / University of Seoul 2026-05-13 16:10:32
 SCM User ID: u30731
  
 AMS 2026.103  RunTime: May30-2026 10:25:04  ShM Nodes: 1  Procs: 1

 AMS jobname: c3_eda
 AMS jobid  : 2006272751

 Start   directory: /gpfs/home1/yeseo1ee/projects/eda-asm-prediction/adf_outputs/batch_000/dipolar_001287/
 Results directory: /gpfs/home1/yeseo1ee/projects/eda-asm-prediction/adf_outputs/batch_000/dipolar_001287/c3_eda.results/
 Scratch directory: /tmp/amstmp_c3_eda_kid0.2006272751/

 RNG seed: 722913998 1821330271 863096058 1557629657 731427552 -1405680272 -1791047823 -1133773184



                      ************************************************************************
                      *  ADF 2026.103  RunTime: May30-2026 10:25:04  ShM Nodes: 1  Procs: 1  *
                      ************************************************************************
  

       ****************************
       * SINGLE POINT CALCULATION *
       ****************************

--------
Geometry
--------
Formula: C15H15ClF2N4O2
Atoms
  Index Symbol   x (angstrom)   y (angstrom)   z (angstrom)
      1      C     1.90295000     2.39754000    -2.20912000 adf.f=fA
      2      C     0.84812000     1.37657000    -2.48620000 adf.f=fA
      3      O     0.82914000     0.66346000    -3.47381000 adf.f=fA
      4      C    -0.28624000     1.24459000    -1.48685000 adf.f=fA
      5      C    -0.56434000     2.37601000    -0.49609000 adf.f=fA
      6      C    -1.32672000     3.53311000    -1.07767000 adf.f=fA
      7      O    -0.13566000     2.35756000     0.63591000 adf.f=fA
      8      N    -1.24966000     0.43101000    -1.90126000 adf.f=fA
      9      N    -2.19825000    -0.10295000    -1.14190000 adf.f=fA
     10      C    -2.84190000     0.71588000    -0.31165000 adf.f=fA
     11      N    -3.50528000     1.37530000     0.39037000 adf.f=fA
     12      H     2.16199000     2.44110000    -1.14279000 adf.f=fA
     13      H     1.49524000     3.38584000    -2.48607000 adf.f=fA
     14      H     2.79050000     2.19360000    -2.81981000 adf.f=fA
     15      H    -1.62574000     4.21621000    -0.27234000 adf.f=fA
     16      H    -2.20152000     3.19437000    -1.65064000 adf.f=fA
     17      H    -0.66356000     4.06152000    -1.78426000 adf.f=fA
     18      H    -0.98896000    -0.14119000    -2.71633000 adf.f=fA
     19      C    -0.73546000    -1.00597000     0.31193000 adf.f=fB
     20      C     0.35025000    -0.42789000     0.14898000 adf.f=fB
     21      C     1.77374000    -0.46965000     0.53429000 adf.f=fB
     22     Cl     2.81048000    -0.64223000    -1.00066000 adf.f=fB
     23      C     2.25489000     0.74914000     1.19300000 adf.f=fB
     24      N     2.71105000     1.65195000     1.75912000 adf.f=fB
     25      C     2.08845000    -1.71233000     1.40610000 adf.f=fB
     26      C     1.50947000    -1.72926000     2.82565000 adf.f=fB
     27      C    -0.01578000    -1.72591000     3.02436000 adf.f=fB
     28      C    -0.80361000    -2.70040000     2.12871000 adf.f=fB
     29      C    -1.56923000    -2.00599000     1.01151000 adf.f=fB
     30      F    -2.67871000    -1.38775000     1.53880000 adf.f=fB
     31      F    -2.05086000    -2.92987000     0.12608000 adf.f=fB
     32      H     3.18333000    -1.77801000     1.48150000 adf.f=fB
     33      H     1.74965000    -2.58241000     0.82602000 adf.f=fB
     34      H     1.93909000    -0.89394000     3.40238000 adf.f=fB
     35      H     1.91393000    -2.64874000     3.28021000 adf.f=fB
     36      H    -0.20162000    -1.98459000     4.07710000 adf.f=fB
     37      H    -0.41353000    -0.70643000     2.90155000 adf.f=fB
     38      H    -1.56031000    -3.25609000     2.70262000 adf.f=fB
     39      H    -0.14297000    -3.44359000     1.65846000 adf.f=fB

Total System Charge              0.00000


----------------
ADF Engine Input
----------------
 
   Basis
     Type TZ2P
     Core None
   End
   XC
     GGA BLYP
     Dispersion GRIMME3 BJDAMP
   End
   Symmetry NOSYM
   NumericalQuality Normal
   Unrestricted No
   SCF
     Iterations 200
     Converge 1.0e-6
   End
   fragments
     fA c1_fragA_ts.results/adf.rkf
     fB c2_fragB_ts.results/adf.rkf
   end
   etsnocv
     enocv 0.05
     ekmin 0.5
   end
   print etslowdin
   Save TAPE21
 

 Title: *** (NO TITLE) ***

 *** adf ***



 ===========================
 A T T A C H E D   F I L E S
 ===========================
  



 ===============================
 M O D E L   P A R A M E T E R S
 ===============================
  
 DENSITY FUNCTIONAL POTENTIAL (scf)
    LDA:                               Exchange only                           == Not Default ==
    Gradient Corrections:              Becke88 LYP                             == Not Default ==

 SPIN  (restricted / unrestr.)
    Molecule:                          Restricted                               
    Fragments:                         Restricted                               

 OTHER ASPECTS
    Relativistic Corrections:          scalar (ZORA,MAPA)                       

    Nuclear Charge Density Model:      Point Charge Nuclei                      
    Core Treatment:                    Frozen Orbital(s)                        

    Hyperfine or Zeeman Interaction:   ---                                      

 Settings for Grimme D3 dispersion correction

      damping                        BJ
      s6                          1.000
      s8                          2.700
      a1                          0.430
      a2                          4.236

 Other (technical) parameters

      alpha                      14.000
      version                         4
 


 Fragment File(s)
 ----------------
 fA:
         file : c1_fragA_ts.results/adf.rkf
         jobid: 56489948
         title: *** adf ***
 fB:
         file : c2_fragB_ts.results/adf.rkf
         jobid: 1595482296
         title: *** adf ***



 ===============
 G E O M E T R Y  ***  3D  Molecule  ***
 ===============
  

 ATOMS
 =====                            X Y Z                    CHARGE
                                (Angstrom)             Nucl     +Core       At.Mass
                       --------------------------    ----------------       -------
    1  C               1.9029    2.3975   -2.2091      6.00      6.00       12.0000
    2  C               0.8481    1.3766   -2.4862      6.00      6.00       12.0000
    3  O               0.8291    0.6635   -3.4738      8.00      8.00       15.9949
    4  C              -0.2862    1.2446   -1.4868      6.00      6.00       12.0000
    5  C              -0.5643    2.3760   -0.4961      6.00      6.00       12.0000
    6  C              -1.3267    3.5331   -1.0777      6.00      6.00       12.0000
    7  O              -0.1357    2.3576    0.6359      8.00      8.00       15.9949
    8  N              -1.2497    0.4310   -1.9013      7.00      7.00       14.0031
    9  N              -2.1982   -0.1029   -1.1419      7.00      7.00       14.0031
   10  C              -2.8419    0.7159   -0.3116      6.00      6.00       12.0000
   11  N              -3.5053    1.3753    0.3904      7.00      7.00       14.0031
   12  H               2.1620    2.4411   -1.1428      1.00      1.00        1.0078
   13  H               1.4952    3.3858   -2.4861      1.00      1.00        1.0078
   14  H               2.7905    2.1936   -2.8198      1.00      1.00        1.0078
   15  H              -1.6257    4.2162   -0.2723      1.00      1.00        1.0078
   16  H              -2.2015    3.1944   -1.6506      1.00      1.00        1.0078
   17  H              -0.6636    4.0615   -1.7843      1.00      1.00        1.0078
   18  H              -0.9890   -0.1412   -2.7163      1.00      1.00        1.0078
   19  C              -0.7355   -1.0060    0.3119      6.00      6.00       12.0000
   20  C               0.3503   -0.4279    0.1490      6.00      6.00       12.0000
   21  C               1.7737   -0.4697    0.5343      6.00      6.00       12.0000
   22  Cl              2.8105   -0.6422   -1.0007     17.00     17.00       34.9689
   23  C               2.2549    0.7491    1.1930      6.00      6.00       12.0000
   24  N               2.7111    1.6519    1.7591      7.00      7.00       14.0031
   25  C               2.0884   -1.7123    1.4061      6.00      6.00       12.0000
   26  C               1.5095   -1.7293    2.8256      6.00      6.00       12.0000
   27  C              -0.0158   -1.7259    3.0244      6.00      6.00       12.0000
   28  C              -0.8036   -2.7004    2.1287      6.00      6.00       12.0000
   29  C              -1.5692   -2.0060    1.0115      6.00      6.00       12.0000
   30  F              -2.6787   -1.3878    1.5388      9.00      9.00       18.9984
   31  F              -2.0509   -2.9299    0.1261      9.00      9.00       18.9984
   32  H               3.1833   -1.7780    1.4815      1.00      1.00        1.0078
   33  H               1.7496   -2.5824    0.8260      1.00      1.00        1.0078
   34  H               1.9391   -0.8939    3.4024      1.00      1.00        1.0078
   35  H               1.9139   -2.6487    3.2802      1.00      1.00        1.0078
   36  H              -0.2016   -1.9846    4.0771      1.00      1.00        1.0078
   37  H              -0.4135   -0.7064    2.9015      1.00      1.00        1.0078
   38  H              -1.5603   -3.2561    2.7026      1.00      1.00        1.0078
   39  H              -0.1430   -3.4436    1.6585      1.00      1.00        1.0078


 FRAGMENTS
 =========                                     Atoms in this Fragment     Cart. coord.s (Angstrom)
                                               -------------------------------------------------------
    1  fA                                                1  C            1.9029    2.3975   -2.2091
                                                         2  C            0.8481    1.3766   -2.4862
                                                         4  C           -0.2862    1.2446   -1.4868
                                                         5  C           -0.5643    2.3760   -0.4961
                                                         6  C           -1.3267    3.5331   -1.0777
                                                        10  C           -2.8419    0.7159   -0.3116
                                                         3  O            0.8291    0.6635   -3.4738
                                                         7  O           -0.1357    2.3576    0.6359
                                                         8  N           -1.2497    0.4310   -1.9013
                                                         9  N           -2.1982   -0.1029   -1.1419
                                                        11  N           -3.5053    1.3753    0.3904
                                                        12  H            2.1620    2.4411   -1.1428
                                                        13  H            1.4952    3.3858   -2.4861
                                                        14  H            2.7905    2.1936   -2.8198
                                                        15  H           -1.6257    4.2162   -0.2723
                                                        16  H           -2.2015    3.1944   -1.6506
                                                        17  H           -0.6636    4.0615   -1.7843
                                                        18  H           -0.9890   -0.1412   -2.7163
    2  fB                                               19  C           -0.7355   -1.0060    0.3119
                                                        20  C            0.3503   -0.4279    0.1490
                                                        21  C            1.7737   -0.4697    0.5343
                                                        23  C            2.2549    0.7491    1.1930
                                                        25  C            2.0884   -1.7123    1.4061
                                                        26  C            1.5095   -1.7293    2.8256
                                                        27  C           -0.0158   -1.7259    3.0244
                                                        28  C           -0.8036   -2.7004    2.1287
                                                        29  C           -1.5692   -2.0060    1.0115
                                                        22  Cl           2.8105   -0.6422   -1.0007
                                                        24  N            2.7111    1.6519    1.7591
                                                        30  F           -2.6787   -1.3878    1.5388
                                                        31  F           -2.0509   -2.9299    0.1261
                                                        32  H            3.1833   -1.7780    1.4815
                                                        33  H            1.7496   -2.5824    0.8260
                                                        34  H            1.9391   -0.8939    3.4024
                                                        35  H            1.9139   -2.6487    3.2802
                                                        36  H           -0.2016   -1.9846    4.0771
                                                        37  H           -0.4135   -0.7064    2.9015
                                                        38  H           -1.5603   -3.2561    2.7026
                                                        39  H           -0.1430   -3.4436    1.6585



 =====================================
 S Y M M E T R Y ,   E L E C T R O N S
 =====================================
  
 Symmetry: NOSYM

 Irreducible Representations, including subspecies
 -------------------------------------------------
 A


 Configuration of Valence Electrons
 ==================================
 ( determined in the SCF procedure )

 Total:   184

 Net Charge: 0 (Nuclei minus Electrons)

 Aufbau principle for MO occupations will be applied through SCF cycle no.     100
 Thereafter, the program will assign electrons to MOs that are spatially
 similar to the occupied MOs in a "reference" cycle ("KeepOrbitals").
 The reference cycle is always the PREVIOUS cycle: it will evolve with
 the SCF procedure.
 ***************************************************************************************************



                                      ****************************************
                                      *  B U I L D : (Fragments, Functions)  *
                                      ****************************************
  

 The individual fragments are copies of the corresponding 'Master' fragments defined on the fragment files.
 However, they may have been rotated (and translated) with respect to the Master. The local coordinate axes
 of each fragment (which define for instance the spatial orientation in the current molecule of a fragment
 P:x orbital) are not necessarily those of the molecule.
 The local frame (if different from the molecular one) is printed to enable an interpretation of the expan-
 sion of an MO in Fragment Orbitals.



                                              ************************
                                              *  Fragment Type : fA  *
                                              ************************
  

 Fragment no.    1   (in the list of all fragments)
 -----------------
 The local coordinate frame is identical to the molecular frame.

 Check Atomic Coordinates:

                  Master (on file)          After Computed Tranformation               As specified on Input
           ----------------------------     ----------------------------     ---------------------------------
     1)     1.90295   2.39754  -2.20912      1.90295   2.39754  -2.20912       1   1.90295   2.39754  -2.20912
     2)     0.84812   1.37657  -2.48620      0.84812   1.37657  -2.48620       2   0.84812   1.37657  -2.48620
     3)    -0.28624   1.24459  -1.48685     -0.28624   1.24459  -1.48685       4  -0.28624   1.24459  -1.48685
     4)    -0.56434   2.37601  -0.49609     -0.56434   2.37601  -0.49609       5  -0.56434   2.37601  -0.49609
     5)    -1.32672   3.53311  -1.07767     -1.32672   3.53311  -1.07767       6  -1.32672   3.53311  -1.07767
     6)    -2.84190   0.71588  -0.31165     -2.84190   0.71588  -0.31165      10  -2.84190   0.71588  -0.31165
     7)     0.82914   0.66346  -3.47381      0.82914   0.66346  -3.47381       3   0.82914   0.66346  -3.47381
     8)    -0.13566   2.35756   0.63591     -0.13566   2.35756   0.63591       7  -0.13566   2.35756   0.63591
     9)    -1.24966   0.43101  -1.90126     -1.24966   0.43101  -1.90126       8  -1.24966   0.43101  -1.90126
    10)    -2.19825  -0.10295  -1.14190     -2.19825  -0.10295  -1.14190       9  -2.19825  -0.10295  -1.14190
    11)    -3.50528   1.37530   0.39037     -3.50528   1.37530   0.39037      11  -3.50528   1.37530   0.39037
    12)     2.16199   2.44110  -1.14279      2.16199   2.44110  -1.14279      12   2.16199   2.44110  -1.14279
    13)     1.49524   3.38584  -2.48607      1.49524   3.38584  -2.48607      13   1.49524   3.38584  -2.48607
    14)     2.79050   2.19360  -2.81981      2.79050   2.19360  -2.81981      14   2.79050   2.19360  -2.81981
    15)    -1.62574   4.21621  -0.27234     -1.62574   4.21621  -0.27234      15  -1.62574   4.21621  -0.27234
    16)    -2.20152   3.19437  -1.65064     -2.20152   3.19437  -1.65064      16  -2.20152   3.19437  -1.65064
    17)    -0.66356   4.06152  -1.78426     -0.66356   4.06152  -1.78426      17  -0.66356   4.06152  -1.78426
    18)    -0.98896  -0.14119  -2.71633     -0.98896  -0.14119  -2.71633      18  -0.98896  -0.14119  -2.71633



                                              ************************
                                              *  Fragment Type : fB  *
                                              ************************
  

 Fragment no.    2   (in the list of all fragments)
 -----------------
 The local coordinate frame is identical to the molecular frame.

 Check Atomic Coordinates:

                  Master (on file)          After Computed Tranformation               As specified on Input
           ----------------------------     ----------------------------     ---------------------------------
     1)    -0.73546  -1.00597   0.31193     -0.73546  -1.00597   0.31193      19  -0.73546  -1.00597   0.31193
     2)     0.35025  -0.42789   0.14898      0.35025  -0.42789   0.14898      20   0.35025  -0.42789   0.14898
     3)     1.77374  -0.46965   0.53429      1.77374  -0.46965   0.53429      21   1.77374  -0.46965   0.53429
     4)     2.25489   0.74914   1.19300      2.25489   0.74914   1.19300      23   2.25489   0.74914   1.19300
     5)     2.08845  -1.71233   1.40610      2.08845  -1.71233   1.40610      25   2.08845  -1.71233   1.40610
     6)     1.50947  -1.72926   2.82565      1.50947  -1.72926   2.82565      26   1.50947  -1.72926   2.82565
     7)    -0.01578  -1.72591   3.02436     -0.01578  -1.72591   3.02436      27  -0.01578  -1.72591   3.02436
     8)    -0.80361  -2.70040   2.12871     -0.80361  -2.70040   2.12871      28  -0.80361  -2.70040   2.12871
     9)    -1.56923  -2.00599   1.01151     -1.56923  -2.00599   1.01151      29  -1.56923  -2.00599   1.01151
    10)     2.81048  -0.64223  -1.00066      2.81048  -0.64223  -1.00066      22   2.81048  -0.64223  -1.00066
    11)     2.71105   1.65195   1.75912      2.71105   1.65195   1.75912      24   2.71105   1.65195   1.75912
    12)    -2.67871  -1.38775   1.53880     -2.67871  -1.38775   1.53880      30  -2.67871  -1.38775   1.53880
    13)    -2.05086  -2.92987   0.12608     -2.05086  -2.92987   0.12608      31  -2.05086  -2.92987   0.12608
    14)     3.18333  -1.77801   1.48150      3.18333  -1.77801   1.48150      32   3.18333  -1.77801   1.48150
    15)     1.74965  -2.58241   0.82602      1.74965  -2.58241   0.82602      33   1.74965  -2.58241   0.82602
    16)     1.93909  -0.89394   3.40238      1.93909  -0.89394   3.40238      34   1.93909  -0.89394   3.40238
    17)     1.91393  -2.64874   3.28021      1.91393  -2.64874   3.28021      35   1.91393  -2.64874   3.28021
    18)    -0.20162  -1.98459   4.07710     -0.20162  -1.98459   4.07710      36  -0.20162  -1.98459   4.07710
    19)    -0.41353  -0.70643   2.90155     -0.41353  -0.70643   2.90155      37  -0.41353  -0.70643   2.90155
    20)    -1.56031  -3.25609   2.70262     -1.56031  -3.25609   2.70262      38  -1.56031  -3.25609   2.70262
    21)    -0.14297  -3.44359   1.65846     -0.14297  -3.44359   1.65846      39  -0.14297  -3.44359   1.65846



 =======
 S F O s  ***  (Symmetrized Fragment Orbitals)  ***
 =======
  
 SFOs are linear combinations of (valence) Fragment Orbitals (FOs), such that the SFOs transform as the
 irreducible representations of the (molecular) symmetry group. Each SFO is therefore characterized by
 an irrep of the molecule and by a few (or only one) generating FOs.
 The SFOs constitute a symmetry-adapted basis for the Fock matrix. The MO eigenvector coefficients in
 this basis provide a direct interpretation of the MOs in terms of Frontier Orbital Theory.

 The SFOs are combined with auxiliary Core Functions (CFs) to ensure orthogonalization on the (frozen)
 Core Orbitals (COs). The Core-orthogonalized SFOs (CSFOs) constitute the true Fock basis.

 The FOs, and hence also the (C)SFOs are combinations of the elementary basis functions (BAS). The basis
 functions that participate in the description of the SFOs depend on the irrep. The indices of the
 involved functions are printed below for each irrep.
 (The complete list of primitive basis functions is printed in another section)

 Total nr. of (C)SFOs (summation over all irreps) :   797

 NOTE: a (C)SFO that is defined as a combination of more than one FO is usually NOT normalized.



                                       === A ===
 Nr. of SFOs :  797
 Cartesian basis functions that participate in this irrep (total number =   908) :
      1     2     3     4     5     6     9    12     7    10
     13     8    11    14    15    16    17    18    19    20
     21    22    23    24    25    26    27    28    29    30
     31    32    33    34    35    36    39    42    37    40
     43    38    41    44    45    46    47    48    49    50
     51    52    53    54    55    56    57    58    59    60
     61    62    63    64    65    66    69    72    67    70
     73    68    71    74    75    76    77    78    79    80
     81    82    83    84    85    86    87    88    89    90
     91    92    93    94    95    96    99   102    97   100
    103    98   101   104   105   106   107   108   109   110
    111   112   113   114   115   116   117   118   119   120
    121   122   123   124   125   126   129   132   127   130
    133   128   131   134   135   136   137   138   139   140
    141   142   143   144   145   146   147   148   149   150
    151   152   153   154   155   156   159   162   157   160
    163   158   161   164   165   166   167   168   169   170
    171   172   173   174   175   176   177   178   179   180
    181   182   183   184   185   186   189   192   187   190
    193   188   191   194   195   196   197   198   199   200
    201   202   203   204   205   206   207   208   209   210
    211   212   213   214   215   216   219   222   217   220
    223   218   221   224   225   226   227   228   229   230
    231   232   233   234   235   236   237   238   239   240
    241   242   243   244   245   246   249   252   247   250
    253   248   251   254   255   256   257   258   259   260
    261   262   263   264   265   266   267   268   269   270
    271   272   273   274   275   276   279   282   277   280
    283   278   281   284   285   286   287   288   289   290
    291   292   293   294   295   296   297   298   299   300
    301   302   303   304   305   306   309   312   307   310
    313   308   311   314   315   316   317   318   319   320
    321   322   323   324   325   326   327   328   329   330
    331   332   333   334   335   336   337   338   339   340
    341   342   343   344   345   346   347   348   349   350
    351   352   353   354   355   356   357   358   359   360
    361   362   363   364   365   366   367   368   369   370
    371   372   373   374   375   376   377   378   379   380
    381   382   383   384   385   386   387   388   389   390
    391   392   393   394   395   396   397   398   399   400
    401   402   403   404   405   406   407   408   409   410
    411   412   413   414   415   416   417   418   419   420
    423   426   421   424   427   422   425   428   429   430
    431   432   433   434   435   436   437   438   439   440
    441   442   443   444   445   446   447   448   449   450
    453   456   451   454   457   452   455   458   459   460
    461   462   463   464   465   466   467   468   469   470
    471   472   473   474   475   476   477   478   479   480
    483   486   481   484   487   482   485   488   489   490
    491   492   493   494   495   496   497   498   499   500
    501   502   503   504   505   506   507   508   509   510
    513   516   511   514   517   512   515   518   519   520
    521   522   523   524   525   526   527   528   529   530
    531   532   533   534   535   536   537   538   539   540
    543   546   541   544   547   542   545   548   549   550
    551   552   553   554   555   556   557   558   559   560
    561   562   563   564   565   566   567   568   569   570
    573   576   571   574   577   572   575   578   579   580
    581   582   583   584   585   586   587   588   589   590
    591   592   593   594   595   596   597   598   599   600
    603   606   601   604   607   602   605   608   609   610
    611   612   613   614   615   616   617   618   619   620
    621   622   623   624   625   626   627   628   629   630
    633   636   631   634   637   632   635   638   639   640
    641   642   643   644   645   646   647   648   649   650
    651   652   653   654   655   656   657   658   659   660
    663   666   661   664   667   662   665   668   669   670
    671   672   673   674   675   676   677   678   679   680
    681   682   683   684   685   686   687   688   695   696
    697   689   692   698   701   704   690   693   699   702
    705   691   694   700   703   706   707   708   709   710
    711   712   713   714   715   716   717   718   719   720
    721   722   723   724   725   726   727   728   731   734
    729   732   735   730   733   736   737   738   739   740
    741   742   743   744   745   746   747   748   749   750
    751   752   753   754   755   756   757   758   761   764
    759   762   765   760   763   766   767   768   769   770
    771   772   773   774   775   776   777   778   779   780
    781   782   783   784   785   786   787   788   791   794
    789   792   795   790   793   796   797   798   799   800
    801   802   803   804   805   806   807   808   809   810
    811   812   813   814   815   816   817   818   819   820
    821   822   823   824   825   826   827   828   829   830
    831   832   833   834   835   836   837   838   839   840
    841   842   843   844   845   846   847   848   849   850
    851   852   853   854   855   856   857   858   859   860
    861   862   863   864   865   866   867   868   869   870
    871   872   873   874   875   876   877   878   879   880
    881   882   883   884   885   886   887   888   889   890
    891   892   893   894   895   896   897   898   899   900
    901   902   903   904   905   906   907   908

    SFO  (index         Fragment          Generating    Expansion in Fragment Orbitals
  indx  incl.CFs)   Occup   Orb.Energy   FragmentType  Coeff.   Orbital     on Fragment
 --------------------------------------------------------------------------------------
     1       1      2.000     -18.825 au  fA            1.00      1 A               1
                        (    -512.257 eV)
     2       2      2.000     -18.821 au  fA            1.00      2 A               1
                        (    -512.158 eV)
     3       3      2.000     -14.183 au  fA            1.00      3 A               1
                        (    -385.950 eV)
     4       4      2.000     -14.097 au  fA            1.00      4 A               1
                        (    -383.605 eV)
     5       5      2.000     -14.023 au  fA            1.00      5 A               1
                        (    -381.581 eV)
     6       6      2.000     -10.053 au  fA            1.00      6 A               1
                        (    -273.545 eV)
     7       7      2.000     -10.052 au  fA            1.00      7 A               1
                        (    -273.537 eV)
     8       8      2.000     -10.017 au  fA            1.00      8 A               1
                        (    -272.573 eV)
     9       9      2.000      -9.987 au  fA            1.00      9 A               1
                        (    -271.756 eV)
    10      10      2.000      -9.960 au  fA            1.00     10 A               1
                        (    -271.028 eV)
    11      11      2.000      -9.955 au  fA            1.00     11 A               1
                        (    -270.901 eV)
    12      12      2.000      -1.020 au  fA            1.00     12 A               1
                        (     -27.755 eV)
    13      13      2.000      -0.993 au  fA            1.00     13 A               1
                        (     -27.010 eV)
    14      14      2.000      -0.989 au  fA            1.00     14 A               1
                        (     -26.923 eV)
    15      15      2.000      -0.844 au  fA            1.00     15 A               1
                        (     -22.973 eV)
    16      16      2.000      -0.803 au  fA            1.00     16 A               1
                        (     -21.842 eV)
    17      17      2.000      -0.737 au  fA            1.00     17 A               1
                        (     -20.050 eV)
    18      18      2.000      -0.709 au  fA            1.00     18 A               1
                        (     -19.297 eV)
    19      19      2.000      -0.670 au  fA            1.00     19 A               1
                        (     -18.235 eV)
    20      20      2.000      -0.587 au  fA            1.00     20 A               1
                        (     -15.975 eV)
    21      21      2.000      -0.574 au  fA            1.00     21 A               1
                        (     -15.621 eV)
    22      22      2.000      -0.527 au  fA            1.00     22 A               1
                        (     -14.344 eV)
    23      23      2.000      -0.472 au  fA            1.00     23 A               1
                        (     -12.832 eV)
    24      24      2.000      -0.462 au  fA            1.00     24 A               1
                        (     -12.563 eV)
    25      25      2.000      -0.449 au  fA            1.00     25 A               1
                        (     -12.219 eV)
    26      26      2.000      -0.434 au  fA            1.00     26 A               1
                        (     -11.809 eV)
    27      27      2.000      -0.422 au  fA            1.00     27 A               1
                        (     -11.491 eV)
    28      28      2.000      -0.418 au  fA            1.00     28 A               1
                        (     -11.361 eV)
    29      29      2.000      -0.414 au  fA            1.00     29 A               1
                        (     -11.267 eV)
    30      30      2.000      -0.389 au  fA            1.00     30 A               1
                        (     -10.584 eV)
    31      31      2.000      -0.378 au  fA            1.00     31 A               1
                        (     -10.283 eV)
    32      32      2.000      -0.366 au  fA            1.00     32 A               1
                        (      -9.959 eV)
    33      33      2.000      -0.359 au  fA            1.00     33 A               1
                        (      -9.773 eV)
    34      34      2.000      -0.350 au  fA            1.00     34 A               1
                        (      -9.530 eV)
    35      35      2.000      -0.329 au  fA            1.00     35 A               1
                        (      -8.956 eV)
    36      36      2.000      -0.321 au  fA            1.00     36 A               1
                        (      -8.729 eV)
    37      37      2.000      -0.275 au  fA            1.00     37 A               1
                        (      -7.497 eV)
    38      38      2.000      -0.264 au  fA            1.00     38 A               1
                        (      -7.174 eV)
    39      39      2.000      -0.245 au  fA            1.00     39 A               1
                        (      -6.664 eV)
    40      40      2.000      -0.228 au  fA            1.00     40 A               1
                        (      -6.206 eV)
    41      41       --        -0.165 au  fA            1.00     41 A               1
                        (      -4.489 eV)
    42      42       --        -0.105 au  fA            1.00     42 A               1
                        (      -2.852 eV)
    43      43       --        -0.059 au  fA            1.00     43 A               1
                        (      -1.613 eV)
    44      44       --        -0.031 au  fA            1.00     44 A               1
                        (      -0.853 eV)
    45      45       --        -0.021 au  fA            1.00     45 A               1
                        (      -0.567 eV)
    46      46       --         0.005 au  fA            1.00     46 A               1
                        (       0.139 eV)
    47      47       --         0.006 au  fA            1.00     47 A               1
                        (       0.167 eV)
    48      48       --         0.030 au  fA            1.00     48 A               1
                        (       0.819 eV)
    49      49       --         0.037 au  fA            1.00     49 A               1
                        (       1.005 eV)
    50      50       --         0.039 au  fA            1.00     50 A               1
                        (       1.062 eV)
    51      51       --         0.048 au  fA            1.00     51 A               1
                        (       1.307 eV)
    52      52       --         0.059 au  fA            1.00     52 A               1
                        (       1.612 eV)
    53      53       --         0.067 au  fA            1.00     53 A               1
                        (       1.811 eV)
    54      54       --         0.082 au  fA            1.00     54 A               1
                        (       2.223 eV)
    55      55       --         0.104 au  fA            1.00     55 A               1
                        (       2.824 eV)
    56      56       --         0.112 au  fA            1.00     56 A               1
                        (       3.056 eV)
    57      57       --         0.132 au  fA            1.00     57 A               1
                        (       3.601 eV)
    58      58       --         0.135 au  fA            1.00     58 A               1
                        (       3.661 eV)
    59      59       --         0.145 au  fA            1.00     59 A               1
                        (       3.949 eV)
    60      60       --         0.151 au  fA            1.00     60 A               1
                        (       4.115 eV)
    61      61       --         0.162 au  fA            1.00     61 A               1
                        (       4.413 eV)
    62      62       --         0.165 au  fA            1.00     62 A               1
                        (       4.495 eV)
    63      63       --         0.171 au  fA            1.00     63 A               1
                        (       4.664 eV)
    64      64       --         0.198 au  fA            1.00     64 A               1
                        (       5.383 eV)
    65      65       --         0.204 au  fA            1.00     65 A               1
                        (       5.550 eV)
    66      66       --         0.216 au  fA            1.00     66 A               1
                        (       5.881 eV)
    67      67       --         0.223 au  fA            1.00     67 A               1
                        (       6.077 eV)
    68      68       --         0.242 au  fA            1.00     68 A               1
                        (       6.588 eV)
    69      69       --         0.249 au  fA            1.00     69 A               1
                        (       6.781 eV)
    70      70       --         0.259 au  fA            1.00     70 A               1
                        (       7.045 eV)
    71      71       --         0.279 au  fA            1.00     71 A               1
                        (       7.582 eV)
    72      72       --         0.283 au  fA            1.00     72 A               1
                        (       7.700 eV)
    73      73       --         0.287 au  fA            1.00     73 A               1
                        (       7.821 eV)
    74      74       --         0.298 au  fA            1.00     74 A               1
                        (       8.109 eV)
    75      75       --         0.314 au  fA            1.00     75 A               1
                        (       8.545 eV)
    76      76       --         0.335 au  fA            1.00     76 A               1
                        (       9.127 eV)
    77      77       --         0.341 au  fA            1.00     77 A               1
                        (       9.274 eV)
    78      78       --         0.350 au  fA            1.00     78 A               1
                        (       9.511 eV)
    79      79       --         0.358 au  fA            1.00     79 A               1
                        (       9.735 eV)
    80      80       --         0.368 au  fA            1.00     80 A               1
                        (      10.024 eV)
    81      81       --         0.386 au  fA            1.00     81 A               1
                        (      10.496 eV)
    82      82       --         0.393 au  fA            1.00     82 A               1
                        (      10.705 eV)
    83      83       --         0.399 au  fA            1.00     83 A               1
                        (      10.855 eV)
    84      84       --         0.413 au  fA            1.00     84 A               1
                        (      11.249 eV)
    85      85       --         0.431 au  fA            1.00     85 A               1
                        (      11.719 eV)
    86      86       --         0.436 au  fA            1.00     86 A               1
                        (      11.859 eV)
    87      87       --         0.453 au  fA            1.00     87 A               1
                        (      12.319 eV)
    88      88       --         0.474 au  fA            1.00     88 A               1
                        (      12.888 eV)
    89      89       --         0.478 au  fA            1.00     89 A               1
                        (      13.000 eV)
    90      90       --         0.501 au  fA            1.00     90 A               1
                        (      13.623 eV)
    91      91       --         0.516 au  fA            1.00     91 A               1
                        (      14.052 eV)
    92      92       --         0.523 au  fA            1.00     92 A               1
                        (      14.236 eV)
    93      93       --         0.536 au  fA            1.00     93 A               1
                        (      14.581 eV)
    94      94       --         0.572 au  fA            1.00     94 A               1
                        (      15.558 eV)
    95      95       --         0.583 au  fA            1.00     95 A               1
                        (      15.854 eV)
    96      96       --         0.596 au  fA            1.00     96 A               1
                        (      16.213 eV)
    97      97       --         0.607 au  fA            1.00     97 A               1
                        (      16.519 eV)
    98      98       --         0.617 au  fA            1.00     98 A               1
                        (      16.786 eV)
    99      99       --         0.687 au  fA            1.00     99 A               1
                        (      18.681 eV)
   100     100       --         0.689 au  fA            1.00    100 A               1
                        (      18.741 eV)
   101     101       --         0.695 au  fA            1.00    101 A               1
                        (      18.909 eV)
   102     102       --         0.719 au  fA            1.00    102 A               1
                        (      19.552 eV)
   103     103       --         0.740 au  fA            1.00    103 A               1
                        (      20.137 eV)
   104     104       --         0.779 au  fA            1.00    104 A               1
                        (      21.198 eV)
   105     105       --         0.780 au  fA            1.00    105 A               1
                        (      21.238 eV)
   106     106       --         0.807 au  fA            1.00    106 A               1
                        (      21.958 eV)
   107     107       --         0.824 au  fA            1.00    107 A               1
                        (      22.420 eV)
   108     108       --         0.828 au  fA            1.00    108 A               1
                        (      22.543 eV)
   109     109       --         0.857 au  fA            1.00    109 A               1
                        (      23.314 eV)
   110     110       --         0.870 au  fA            1.00    110 A               1
                        (      23.662 eV)
   111     111       --         0.916 au  fA            1.00    111 A               1
                        (      24.923 eV)
   112     112       --         0.935 au  fA            1.00    112 A               1
                        (      25.435 eV)
   113     113       --         0.952 au  fA            1.00    113 A               1
                        (      25.906 eV)
   114     114       --         0.960 au  fA            1.00    114 A               1
                        (      26.134 eV)
   115     115       --         0.964 au  fA            1.00    115 A               1
                        (      26.225 eV)
   116     116       --         1.003 au  fA            1.00    116 A               1
                        (      27.294 eV)
   117     117       --         1.012 au  fA            1.00    117 A               1
                        (      27.541 eV)
   118     118       --         1.029 au  fA            1.00    118 A               1
                        (      28.013 eV)
   119     119       --         1.048 au  fA            1.00    119 A               1
                        (      28.527 eV)
   120     120       --         1.073 au  fA            1.00    120 A               1
                        (      29.193 eV)
   121     121       --         1.080 au  fA            1.00    121 A               1
                        (      29.394 eV)
   122     122       --         1.099 au  fA            1.00    122 A               1
                        (      29.892 eV)
   123     123       --         1.116 au  fA            1.00    123 A               1
                        (      30.374 eV)
   124     124       --         1.128 au  fA            1.00    124 A               1
                        (      30.684 eV)
   125     125       --         1.142 au  fA            1.00    125 A               1
                        (      31.080 eV)
   126     126       --         1.148 au  fA            1.00    126 A               1
                        (      31.230 eV)
   127     127       --         1.167 au  fA            1.00    127 A               1
                        (      31.748 eV)
   128     128       --         1.187 au  fA            1.00    128 A               1
                        (      32.310 eV)
   129     129       --         1.191 au  fA            1.00    129 A               1
                        (      32.410 eV)
   130     130       --         1.214 au  fA            1.00    130 A               1
                        (      33.030 eV)
   131     131       --         1.223 au  fA            1.00    131 A               1
                        (      33.284 eV)
   132     132       --         1.242 au  fA            1.00    132 A               1
                        (      33.786 eV)
   133     133       --         1.245 au  fA            1.00    133 A               1
                        (      33.887 eV)
   134     134       --         1.277 au  fA            1.00    134 A               1
                        (      34.762 eV)
   135     135       --         1.291 au  fA            1.00    135 A               1
                        (      35.125 eV)
   136     136       --         1.299 au  fA            1.00    136 A               1
                        (      35.352 eV)
   137     137       --         1.312 au  fA            1.00    137 A               1
                        (      35.707 eV)
   138     138       --         1.334 au  fA            1.00    138 A               1
                        (      36.303 eV)
   139     139       --         1.351 au  fA            1.00    139 A               1
                        (      36.762 eV)
   140     140       --         1.356 au  fA            1.00    140 A               1
                        (      36.909 eV)
   141     141       --         1.370 au  fA            1.00    141 A               1
                        (      37.275 eV)
   142     142       --         1.390 au  fA            1.00    142 A               1
                        (      37.835 eV)
   143     143       --         1.454 au  fA            1.00    143 A               1
                        (      39.553 eV)
   144     144       --         1.465 au  fA            1.00    144 A               1
                        (      39.860 eV)
   145     145       --         1.499 au  fA            1.00    145 A               1
                        (      40.797 eV)
   146     146       --         1.518 au  fA            1.00    146 A               1
                        (      41.312 eV)
   147     147       --         1.526 au  fA            1.00    147 A               1
                        (      41.522 eV)
   148     148       --         1.557 au  fA            1.00    148 A               1
                        (      42.364 eV)
   149     149       --         1.581 au  fA            1.00    149 A               1
                        (      43.008 eV)
   150     150       --         1.613 au  fA            1.00    150 A               1
                        (      43.895 eV)
   151     151       --         1.622 au  fA            1.00    151 A               1
                        (      44.146 eV)
   152     152       --         1.652 au  fA            1.00    152 A               1
                        (      44.940 eV)
   153     153       --         1.667 au  fA            1.00    153 A               1
                        (      45.371 eV)
   154     154       --         1.702 au  fA            1.00    154 A               1
                        (      46.325 eV)
   155     155       --         1.719 au  fA            1.00    155 A               1
                        (      46.790 eV)
   156     156       --         1.727 au  fA            1.00    156 A               1
                        (      46.995 eV)
   157     157       --         1.751 au  fA            1.00    157 A               1
                        (      47.645 eV)
   158     158       --         1.772 au  fA            1.00    158 A               1
                        (      48.214 eV)
   159     159       --         1.780 au  fA            1.00    159 A               1
                        (      48.428 eV)
   160     160       --         1.788 au  fA            1.00    160 A               1
                        (      48.664 eV)
   161     161       --         1.820 au  fA            1.00    161 A               1
                        (      49.518 eV)
   162     162       --         1.874 au  fA            1.00    162 A               1
                        (      50.992 eV)
   163     163       --         1.888 au  fA            1.00    163 A               1
                        (      51.375 eV)
   164     164       --         1.915 au  fA            1.00    164 A               1
                        (      52.102 eV)
   165     165       --         1.924 au  fA            1.00    165 A               1
                        (      52.350 eV)
   166     166       --         1.950 au  fA            1.00    166 A               1
                        (      53.049 eV)
   167     167       --         1.963 au  fA            1.00    167 A               1
                        (      53.405 eV)
   168     168       --         1.975 au  fA            1.00    168 A               1
                        (      53.742 eV)
   169     169       --         2.004 au  fA            1.00    169 A               1
                        (      54.524 eV)
   170     170       --         2.023 au  fA            1.00    170 A               1
                        (      55.060 eV)
   171     171       --         2.035 au  fA            1.00    171 A               1
                        (      55.373 eV)
   172     172       --         2.040 au  fA            1.00    172 A               1
                        (      55.502 eV)
   173     173       --         2.100 au  fA            1.00    173 A               1
                        (      57.153 eV)
   174     174       --         2.128 au  fA            1.00    174 A               1
                        (      57.914 eV)
   175     175       --         2.165 au  fA            1.00    175 A               1
                        (      58.920 eV)
   176     176       --         2.172 au  fA            1.00    176 A               1
                        (      59.108 eV)
   177     177       --         2.215 au  fA            1.00    177 A               1
                        (      60.284 eV)
   178     178       --         2.231 au  fA            1.00    178 A               1
                        (      60.711 eV)
   179     179       --         2.242 au  fA            1.00    179 A               1
                        (      61.010 eV)
   180     180       --         2.288 au  fA            1.00    180 A               1
                        (      62.250 eV)
   181     181       --         2.301 au  fA            1.00    181 A               1
                        (      62.622 eV)
   182     182       --         2.344 au  fA            1.00    182 A               1
                        (      63.797 eV)
   183     183       --         2.352 au  fA            1.00    183 A               1
                        (      64.006 eV)
   184     184       --         2.389 au  fA            1.00    184 A               1
                        (      65.021 eV)
   185     185       --         2.440 au  fA            1.00    185 A               1
                        (      66.390 eV)
   186     186       --         2.454 au  fA            1.00    186 A               1
                        (      66.781 eV)
   187     187       --         2.470 au  fA            1.00    187 A               1
                        (      67.214 eV)
   188     188       --         2.506 au  fA            1.00    188 A               1
                        (      68.195 eV)
   189     189       --         2.522 au  fA            1.00    189 A               1
                        (      68.640 eV)
   190     190       --         2.552 au  fA            1.00    190 A               1
                        (      69.456 eV)
   191     191       --         2.576 au  fA            1.00    191 A               1
                        (      70.088 eV)
   192     192       --         2.597 au  fA            1.00    192 A               1
                        (      70.679 eV)
   193     193       --         2.614 au  fA            1.00    193 A               1
                        (      71.131 eV)
   194     194       --         2.654 au  fA            1.00    194 A               1
                        (      72.211 eV)
   195     195       --         2.728 au  fA            1.00    195 A               1
                        (      74.233 eV)
   196     196       --         2.742 au  fA            1.00    196 A               1
                        (      74.603 eV)
   197     197       --         2.762 au  fA            1.00    197 A               1
                        (      75.167 eV)
   198     198       --         2.776 au  fA            1.00    198 A               1
                        (      75.547 eV)
   199     199       --         2.789 au  fA            1.00    199 A               1
                        (      75.896 eV)
   200     200       --         2.806 au  fA            1.00    200 A               1
                        (      76.365 eV)
   201     201       --         2.832 au  fA            1.00    201 A               1
                        (      77.066 eV)
   202     202       --         2.847 au  fA            1.00    202 A               1
                        (      77.482 eV)
   203     203       --         2.854 au  fA            1.00    203 A               1
                        (      77.648 eV)
   204     204       --         2.871 au  fA            1.00    204 A               1
                        (      78.117 eV)
   205     205       --         2.895 au  fA            1.00    205 A               1
                        (      78.781 eV)
   206     206       --         2.917 au  fA            1.00    206 A               1
                        (      79.387 eV)
   207     207       --         2.934 au  fA            1.00    207 A               1
                        (      79.835 eV)
   208     208       --         2.966 au  fA            1.00    208 A               1
                        (      80.696 eV)
   209     209       --         2.988 au  fA            1.00    209 A               1
                        (      81.314 eV)
   210     210       --         3.028 au  fA            1.00    210 A               1
                        (      82.399 eV)
   211     211       --         3.034 au  fA            1.00    211 A               1
                        (      82.564 eV)
   212     212       --         3.088 au  fA            1.00    212 A               1
                        (      84.016 eV)
   213     213       --         3.111 au  fA            1.00    213 A               1
                        (      84.644 eV)
   214     214       --         3.158 au  fA            1.00    214 A               1
                        (      85.943 eV)
   215     215       --         3.171 au  fA            1.00    215 A               1
                        (      86.274 eV)
   216     216       --         3.220 au  fA            1.00    216 A               1
                        (      87.607 eV)
   217     217       --         3.262 au  fA            1.00    217 A               1
                        (      88.754 eV)
   218     218       --         3.286 au  fA            1.00    218 A               1
                        (      89.417 eV)
   219     219       --         3.322 au  fA            1.00    219 A               1
                        (      90.388 eV)
   220     220       --         3.330 au  fA            1.00    220 A               1
                        (      90.603 eV)
   221     221       --         3.338 au  fA            1.00    221 A               1
                        (      90.830 eV)
   222     222       --         3.359 au  fA            1.00    222 A               1
                        (      91.408 eV)
   223     223       --         3.373 au  fA            1.00    223 A               1
                        (      91.778 eV)
   224     224       --         3.383 au  fA            1.00    224 A               1
                        (      92.063 eV)
   225     225       --         3.394 au  fA            1.00    225 A               1
                        (      92.362 eV)
   226     226       --         3.422 au  fA            1.00    226 A               1
                        (      93.109 eV)
   227     227       --         3.439 au  fA            1.00    227 A               1
                        (      93.586 eV)
   228     228       --         3.442 au  fA            1.00    228 A               1
                        (      93.669 eV)
   229     229       --         3.453 au  fA            1.00    229 A               1
                        (      93.953 eV)
   230     230       --         3.463 au  fA            1.00    230 A               1
                        (      94.239 eV)
   231     231       --         3.482 au  fA            1.00    231 A               1
                        (      94.763 eV)
   232     232       --         3.500 au  fA            1.00    232 A               1
                        (      95.232 eV)
   233     233       --         3.542 au  fA            1.00    233 A               1
                        (      96.396 eV)
   234     234       --         3.549 au  fA            1.00    234 A               1
                        (      96.572 eV)
   235     235       --         3.577 au  fA            1.00    235 A               1
                        (      97.325 eV)
   236     236       --         3.616 au  fA            1.00    236 A               1
                        (      98.406 eV)
   237     237       --         3.632 au  fA            1.00    237 A               1
                        (      98.841 eV)
   238     238       --         3.699 au  fA            1.00    238 A               1
                        (     100.651 eV)
   239     239       --         3.721 au  fA            1.00    239 A               1
                        (     101.259 eV)
   240     240       --         3.751 au  fA            1.00    240 A               1
                        (     102.080 eV)
   241     241       --         3.756 au  fA            1.00    241 A               1
                        (     102.212 eV)
   242     242       --         3.776 au  fA            1.00    242 A               1
                        (     102.757 eV)
   243     243       --         3.799 au  fA            1.00    243 A               1
                        (     103.382 eV)
   244     244       --         3.821 au  fA            1.00    244 A               1
                        (     103.987 eV)
   245     245       --         3.830 au  fA            1.00    245 A               1
                        (     104.229 eV)
   246     246       --         3.876 au  fA            1.00    246 A               1
                        (     105.466 eV)
   247     247       --         3.889 au  fA            1.00    247 A               1
                        (     105.833 eV)
   248     248       --         3.920 au  fA            1.00    248 A               1
                        (     106.666 eV)
   249     249       --         3.948 au  fA            1.00    249 A               1
                        (     107.441 eV)
   250     250       --         3.957 au  fA            1.00    250 A               1
                        (     107.680 eV)
   251     251       --         3.997 au  fA            1.00    251 A               1
                        (     108.763 eV)
   252     252       --         4.007 au  fA            1.00    252 A               1
                        (     109.047 eV)
   253     253       --         4.029 au  fA            1.00    253 A               1
                        (     109.644 eV)
   254     254       --         4.044 au  fA            1.00    254 A               1
                        (     110.036 eV)
   255     255       --         4.053 au  fA            1.00    255 A               1
                        (     110.301 eV)
   256     256       --         4.099 au  fA            1.00    256 A               1
                        (     111.543 eV)
   257     257       --         4.114 au  fA            1.00    257 A               1
                        (     111.944 eV)
   258     258       --         4.163 au  fA            1.00    258 A               1
                        (     113.288 eV)
   259     259       --         4.201 au  fA            1.00    259 A               1
                        (     114.307 eV)
   260     260       --         4.213 au  fA            1.00    260 A               1
                        (     114.635 eV)
   261     261       --         4.259 au  fA            1.00    261 A               1
                        (     115.882 eV)
   262     262       --         4.282 au  fA            1.00    262 A               1
                        (     116.514 eV)
   263     263       --         4.315 au  fA            1.00    263 A               1
                        (     117.406 eV)
   264     264       --         4.338 au  fA            1.00    264 A               1
                        (     118.042 eV)
   265     265       --         4.341 au  fA            1.00    265 A               1
                        (     118.117 eV)
   266     266       --         4.356 au  fA            1.00    266 A               1
                        (     118.524 eV)
   267     267       --         4.359 au  fA            1.00    267 A               1
                        (     118.620 eV)
   268     268       --         4.403 au  fA            1.00    268 A               1
                        (     119.803 eV)
   269     269       --         4.418 au  fA            1.00    269 A               1
                        (     120.233 eV)
   270     270       --         4.439 au  fA            1.00    270 A               1
                        (     120.799 eV)
   271     271       --         4.495 au  fA            1.00    271 A               1
                        (     122.327 eV)
   272     272       --         4.511 au  fA            1.00    272 A               1
                        (     122.762 eV)
   273     273       --         4.557 au  fA            1.00    273 A               1
                        (     123.995 eV)
   274     274       --         4.579 au  fA            1.00    274 A               1
                        (     124.614 eV)
   275     275       --         4.592 au  fA            1.00    275 A               1
                        (     124.944 eV)
   276     276       --         4.600 au  fA            1.00    276 A               1
                        (     125.180 eV)
   277     277       --         4.626 au  fA            1.00    277 A               1
                        (     125.877 eV)
   278     278       --         4.656 au  fA            1.00    278 A               1
                        (     126.706 eV)
   279     279       --         4.678 au  fA            1.00    279 A               1
                        (     127.299 eV)
   280     280       --         4.718 au  fA            1.00    280 A               1
                        (     128.382 eV)
   281     281       --         4.746 au  fA            1.00    281 A               1
                        (     129.155 eV)
   282     282       --         4.784 au  fA            1.00    282 A               1
                        (     130.180 eV)
   283     283       --         4.808 au  fA            1.00    283 A               1
                        (     130.840 eV)
   284     284       --         4.852 au  fA            1.00    284 A               1
                        (     132.036 eV)
   285     285       --         4.875 au  fA            1.00    285 A               1
                        (     132.647 eV)
   286     286       --         4.932 au  fA            1.00    286 A               1
                        (     134.215 eV)
   287     287       --         4.958 au  fA            1.00    287 A               1
                        (     134.919 eV)
   288     288       --         5.001 au  fA            1.00    288 A               1
                        (     136.072 eV)
   289     289       --         5.035 au  fA            1.00    289 A               1
                        (     137.022 eV)
   290     290       --         5.082 au  fA            1.00    290 A               1
                        (     138.295 eV)
   291     291       --         5.147 au  fA            1.00    291 A               1
                        (     140.052 eV)
   292     292       --         5.162 au  fA            1.00    292 A               1
                        (     140.457 eV)
   293     293       --         5.221 au  fA            1.00    293 A               1
                        (     142.074 eV)
   294     294       --         5.226 au  fA            1.00    294 A               1
                        (     142.208 eV)
   295     295       --         5.248 au  fA            1.00    295 A               1
                        (     142.814 eV)
   296     296       --         5.359 au  fA            1.00    296 A               1
                        (     145.829 eV)
   297     297       --         5.415 au  fA            1.00    297 A               1
                        (     147.356 eV)
   298     298       --         5.465 au  fA            1.00    298 A               1
                        (     148.699 eV)
   299     299       --         5.509 au  fA            1.00    299 A               1
                        (     149.914 eV)
   300     300       --         5.533 au  fA            1.00    300 A               1
                        (     150.564 eV)
   301     301       --         5.570 au  fA            1.00    301 A               1
                        (     151.567 eV)
   302     302       --         5.646 au  fA            1.00    302 A               1
                        (     153.634 eV)
   303     303       --         5.655 au  fA            1.00    303 A               1
                        (     153.877 eV)
   304     304       --         5.689 au  fA            1.00    304 A               1
                        (     154.804 eV)
   305     305       --         5.718 au  fA            1.00    305 A               1
                        (     155.588 eV)
   306     306       --         5.754 au  fA            1.00    306 A               1
                        (     156.562 eV)
   307     307       --         5.881 au  fA            1.00    307 A               1
                        (     160.031 eV)
   308     308       --         5.933 au  fA            1.00    308 A               1
                        (     161.435 eV)
   309     309       --         6.039 au  fA            1.00    309 A               1
                        (     164.335 eV)
   310     310       --         6.083 au  fA            1.00    310 A               1
                        (     165.516 eV)
   311     311       --         6.131 au  fA            1.00    311 A               1
                        (     166.841 eV)
   312     312       --         6.199 au  fA            1.00    312 A               1
                        (     168.686 eV)
   313     313       --         6.272 au  fA            1.00    313 A               1
                        (     170.674 eV)
   314     314       --         6.284 au  fA            1.00    314 A               1
                        (     170.992 eV)
   315     315       --         6.339 au  fA            1.00    315 A               1
                        (     172.491 eV)
   316     316       --         6.395 au  fA            1.00    316 A               1
                        (     174.026 eV)
   317     317       --         6.408 au  fA            1.00    317 A               1
                        (     174.364 eV)
   318     318       --         6.448 au  fA            1.00    318 A               1
                        (     175.465 eV)
   319     319       --         6.462 au  fA            1.00    319 A               1
                        (     175.840 eV)
   320     320       --         6.546 au  fA            1.00    320 A               1
                        (     178.127 eV)
   321     321       --         6.560 au  fA            1.00    321 A               1
                        (     178.508 eV)
   322     322       --         6.562 au  fA            1.00    322 A               1
                        (     178.563 eV)
   323     323       --         6.675 au  fA            1.00    323 A               1
                        (     181.633 eV)
   324     324       --         6.692 au  fA            1.00    324 A               1
                        (     182.106 eV)
   325     325       --         6.764 au  fA            1.00    325 A               1
                        (     184.062 eV)
   326     326       --         7.047 au  fA            1.00    326 A               1
                        (     191.756 eV)
   327     327       --         7.087 au  fA            1.00    327 A               1
                        (     192.836 eV)
   328     328       --         7.147 au  fA            1.00    328 A               1
                        (     194.467 eV)
   329     329       --         7.188 au  fA            1.00    329 A               1
                        (     195.606 eV)
   330     330       --         7.245 au  fA            1.00    330 A               1
                        (     197.144 eV)
   331     331       --         7.272 au  fA            1.00    331 A               1
                        (     197.877 eV)
   332     332       --         7.307 au  fA            1.00    332 A               1
                        (     198.829 eV)
   333     333       --         7.354 au  fA            1.00    333 A               1
                        (     200.119 eV)
   334     334       --         7.428 au  fA            1.00    334 A               1
                        (     202.121 eV)
   335     335       --         7.454 au  fA            1.00    335 A               1
                        (     202.843 eV)
   336     336       --         7.484 au  fA            1.00    336 A               1
                        (     203.663 eV)
   337     337       --         7.598 au  fA            1.00    337 A               1
                        (     206.742 eV)
   338     338       --         7.745 au  fA            1.00    338 A               1
                        (     210.749 eV)
   339     339       --         7.831 au  fA            1.00    339 A               1
                        (     213.079 eV)
   340     340       --         7.989 au  fA            1.00    340 A               1
                        (     217.392 eV)
   341     341       --         8.067 au  fA            1.00    341 A               1
                        (     219.507 eV)
   342     342       --         8.217 au  fA            1.00    342 A               1
                        (     223.609 eV)
   343     343       --         8.511 au  fA            1.00    343 A               1
                        (     231.596 eV)
   344     344       --         8.850 au  fA            1.00    344 A               1
                        (     240.810 eV)
   345     345       --         9.042 au  fA            1.00    345 A               1
                        (     246.055 eV)
   346     346       --         9.627 au  fA            1.00    346 A               1
                        (     261.978 eV)
   347     347       --         9.880 au  fA            1.00    347 A               1
                        (     268.860 eV)
   348     348       --         9.932 au  fA            1.00    348 A               1
                        (     270.268 eV)
   349     349       --        10.466 au  fA            1.00    349 A               1
                        (     284.796 eV)
   350     350       --        11.395 au  fA            1.00    350 A               1
                        (     310.077 eV)
   351     351       --        15.772 au  fA            1.00    351 A               1
                        (     429.183 eV)
   352     352       --        15.792 au  fA            1.00    352 A               1
                        (     429.720 eV)
   353     353       --        53.965 au  fA            1.00    353 A               1
                        (    1468.449 eV)
   354     354       --        55.966 au  fA            1.00    354 A               1
                        (    1522.912 eV)
   355     355       --        56.858 au  fA            1.00    355 A               1
                        (    1547.182 eV)
   356     356       --        57.360 au  fA            1.00    356 A               1
                        (    1560.857 eV)
   357     357       --        57.904 au  fA            1.00    357 A               1
                        (    1575.646 eV)
   358     358       --        59.032 au  fA            1.00    358 A               1
                        (    1606.340 eV)
   359     359       --        69.373 au  fA            1.00    359 A               1
                        (    1887.737 eV)
   360     360       --        70.369 au  fA            1.00    360 A               1
                        (    1914.844 eV)
   361     361       --        72.899 au  fA            1.00    361 A               1
                        (    1983.677 eV)
   362     362       --       128.195 au  fA            1.00    362 A               1
                        (    3488.374 eV)
   363     363       --       128.275 au  fA            1.00    363 A               1
                        (    3490.546 eV)
   364     364      2.000    -101.101 au  fB            1.00      1 A               2
                        (   -2751.086 eV)
   365     365      2.000     -24.338 au  fB            1.00      2 A               2
                        (    -662.265 eV)
   366     366      2.000     -24.334 au  fB            1.00      3 A               2
                        (    -662.164 eV)
   367     367      2.000     -14.047 au  fB            1.00      4 A               2
                        (    -382.229 eV)
   368     368      2.000     -10.129 au  fB            1.00      5 A               2
                        (    -275.628 eV)
   369     369      2.000     -10.078 au  fB            1.00      6 A               2
                        (    -274.224 eV)
   370     370      2.000      -9.985 au  fB            1.00      7 A               2
                        (    -271.717 eV)
   371     371      2.000      -9.979 au  fB            1.00      8 A               2
                        (    -271.546 eV)
   372     372      2.000      -9.974 au  fB            1.00      9 A               2
                        (    -271.410 eV)
   373     373      2.000      -9.974 au  fB            1.00     10 A               2
                        (    -271.397 eV)
   374     374      2.000      -9.965 au  fB            1.00     11 A               2
                        (    -271.148 eV)
   375     375      2.000      -9.956 au  fB            1.00     12 A               2
                        (    -270.916 eV)
   376     376      2.000      -9.954 au  fB            1.00     13 A               2
                        (    -270.851 eV)
   377     377      2.000      -9.254 au  fB            1.00     14 A               2
                        (    -251.827 eV)
   378     378      2.000      -7.023 au  fB            1.00     15 A               2
                        (    -191.094 eV)
   379     379      2.000      -7.011 au  fB            1.00     16 A               2
                        (    -190.776 eV)
   380     380      2.000      -7.011 au  fB            1.00     17 A               2
                        (    -190.771 eV)
   381     381      2.000      -1.173 au  fB            1.00     18 A               2
                        (     -31.915 eV)
   382     382      2.000      -1.114 au  fB            1.00     19 A               2
                        (     -30.317 eV)
   383     383      2.000      -0.862 au  fB            1.00     20 A               2
                        (     -23.469 eV)
   384     384      2.000      -0.828 au  fB            1.00     21 A               2
                        (     -22.529 eV)
   385     385      2.000      -0.780 au  fB            1.00     22 A               2
                        (     -21.234 eV)
   386     386      2.000      -0.741 au  fB            1.00     23 A               2
                        (     -20.160 eV)
   387     387      2.000      -0.734 au  fB            1.00     24 A               2
                        (     -19.985 eV)
   388     388      2.000      -0.670 au  fB            1.00     25 A               2
                        (     -18.244 eV)
   389     389      2.000      -0.658 au  fB            1.00     26 A               2
                        (     -17.903 eV)
   390     390      2.000      -0.610 au  fB            1.00     27 A               2
                        (     -16.588 eV)
[...]
     450       78.2511         0.000       
     449       78.1022         0.000       
     448       77.9664         0.000       
     447       77.6099         0.000       
     446       77.4668         0.000       
     445       77.0276         0.000       
     444       76.6737         0.000       
     443       76.5164         0.000       
     442       76.2245         0.000       
     441       76.2086         0.000       
     440       75.8518         0.000       
     439       75.6933         0.000       
     438       75.4792         0.000       
     437       75.2393         0.000       
     436       75.1104         0.000       
     435       74.7421         0.000       
     434       74.7238         0.000       
     433       74.0235         0.000       
     432       73.7219         0.000       
     431       73.3482         0.000       
     430       73.2352         0.000       
     429       72.7117         0.000       
     428       72.2575         0.000       
     427       72.1753         0.000       
     426       71.8177         0.000       
     425       71.4005         0.000       
     424       71.2720         0.000       
     423       70.5743         0.000       
     422       69.9416         0.000       
     421       69.6845         0.000       
     420       69.5563         0.000       
     419       69.4275         0.000       
     418       68.9016         0.000       
     417       68.4011         0.000       
     416       68.0949         0.000       
     415       67.7063         0.000       
     414       67.5873         0.000       
     413       67.2002         0.000       
     412       66.5720         0.000       
     411       66.4492         0.000       
     410       65.9225         0.000       
     409       65.6362         0.000       
     408       65.2715         0.000       
     407       64.8654         0.000       
     406       64.6638         0.000       
     405       64.5021         0.000       
     404       64.1806         0.000       
     403       63.4599         0.000       
     402       63.3479         0.000       
     401       62.9639         0.000       
     400       62.8335         0.000       
     399       62.6835         0.000       
     398       62.3497         0.000       
     397       61.6939         0.000       
     396       61.3512         0.000       
     395       61.2331         0.000       
     394       60.5968         0.000       
     393       60.3168         0.000       
     392       60.1516         0.000       
     391       59.7361         0.000       
     390       59.2186         0.000       
     389       58.8860         0.000       
     388       58.7437         0.000       
     387       58.4370         0.000       
     386       58.3485         0.000       
     385       57.9216         0.000       
     384       57.1690         0.000       
     383       56.8674         0.000       
     382       56.4224         0.000       
     381       56.2308         0.000       
     380       55.9589         0.000       
     379       55.6481         0.000       
     378       55.4388         0.000       
     377       55.1670         0.000       
     376       54.9101         0.000       
     375       54.3917         0.000       
     374       54.0633         0.000       
     373       53.9204         0.000       
     372       53.4187         0.000       
     371       53.3743         0.000       
     370       53.2862         0.000       
     369       52.8560         0.000       
     368       52.4828         0.000       
     367       52.2839         0.000       
     366       52.0369         0.000       
     365       51.8143         0.000       
     364       51.4765         0.000       
     363       51.3931         0.000       
     362       51.2389         0.000       
     361       50.8459         0.000       
     360       50.8100         0.000       
     359       50.4711         0.000       
     358       50.1358         0.000       
     357       50.0625         0.000       
     356       49.7669         0.000       
     355       49.3554         0.000       
     354       49.1080         0.000       
     353       48.9140         0.000       
     352       48.4589         0.000       
     351       48.3173         0.000       
     350       47.9008         0.000       
     349       47.8272         0.000       
     348       47.5044         0.000       
     347       46.8990         0.000       
     346       46.7096         0.000       
     345       46.4965         0.000       
     344       46.3272         0.000       
     343       46.0619         0.000       
     342       45.8974         0.000       
     341       45.5178         0.000       
     340       45.4872         0.000       
     339       45.2715         0.000       
     338       45.0339         0.000       
     337       44.9560         0.000       
     336       44.8009         0.000       
     335       44.3743         0.000       
     334       44.3080         0.000       
     333       43.8472         0.000       
     332       43.5415         0.000       
     331       43.0056         0.000       
     330       42.7058         0.000       
     329       42.4753         0.000       
     328       41.8988         0.000       
     327       41.8119         0.000       
     326       41.5659         0.000       
     325       41.5209         0.000       
     324       41.0354         0.000       
     323       40.8958         0.000       
     322       40.8169         0.000       
     321       40.6038         0.000       
     320       40.2234         0.000       
     319       39.7092         0.000       
     318       39.6222         0.000       
     317       39.5602         0.000       
     316       39.1917         0.000       
     315       39.0094         0.000       
     314       38.7396         0.000       
     313       38.5162         0.000       
     312       38.4542         0.000       
     311       38.2709         0.000       
     310       37.9993         0.000       
     309       37.6324         0.000       
     308       37.5216         0.000       
     307       37.3046         0.000       
     306       37.1590         0.000       
     305       37.0587         0.000       
     304       36.9242         0.000       
     303       36.6750         0.000       
     302       36.3078         0.000       
     301       36.2212         0.000       
     300       36.0601         0.000       
     299       36.0020         0.000       
     298       35.6200         0.000       
     297       35.5411         0.000       
     296       35.3531         0.000       
     295       35.1932         0.000       
     294       35.0413         0.000       
     293       34.7647         0.000       
     292       34.7203         0.000       
     291       34.5920         0.000       
     290       34.3767         0.000       
     289       34.1525         0.000       
     288       34.0894         0.000       
     287       33.8722         0.000       
     286       33.7219         0.000       
     285       33.5260         0.000       
     284       33.2709         0.000       
     283       33.1007         0.000       
     282       32.9455         0.000       
     281       32.8438         0.000       
     280       32.7803         0.000       
     279       32.5200         0.000       
     278       32.3142         0.000       
     277       31.9868         0.000       
     276       31.9211         0.000       
     275       31.6612         0.000       
     274       31.4744         0.000       
     273       31.1442         0.000       
     272       31.0719         0.000       
     271       30.7131         0.000       
     270       30.6304         0.000       
     269       30.4344         0.000       
     268       30.1790         0.000       
     267       29.9154         0.000       
     266       29.8096         0.000       
     265       29.5617         0.000       
     264       29.5291         0.000       
     263       29.2200         0.000       
     262       28.9507         0.000       
     261       28.7978         0.000       
     260       28.4528         0.000       
     259       28.3359         0.000       
     258       28.1642         0.000       
     257       27.8544         0.000       
     256       27.5874         0.000       
     255       27.2071         0.000       
     254       26.9824         0.000       
     253       26.7689         0.000       
     252       26.5308         0.000       
     251       26.4136         0.000       
     250       26.2280         0.000       
     249       26.1191         0.000       
     248       25.7923         0.000       
     247       25.5194         0.000       
     246       25.3249         0.000       
     245       25.1139         0.000       
     244       24.8041         0.000       
     243       24.7528         0.000       
     242       24.7237         0.000       
     241       24.2849         0.000       
     240       24.1663         0.000       
     239       23.7906         0.000       
     238       23.5857         0.000       
     237       23.4671         0.000       
     236       22.9808         0.000       
     235       22.8694         0.000       
     234       22.6555         0.000       
     233       22.5177         0.000       
     232       22.1709         0.000       
     231       22.0221         0.000       
     230       21.7242         0.000       
     229       21.5090         0.000       
     228       21.2146         0.000       
     227       21.1679         0.000       
     226       20.9837         0.000       
     225       20.9237         0.000       
     224       20.6788         0.000       
     223       20.3894         0.000       
     222       20.0436         0.000       
     221       19.7073         0.000       
     220       19.5545         0.000       
     219       19.0640         0.000       
     218       18.9994         0.000       
     217       18.7661         0.000       
     216       18.4971         0.000       
     215       17.9153         0.000       
     214       17.6401         0.000       
     213       17.4305         0.000       
     212       17.0953         0.000       
     211       17.0593         0.000       
     210       16.7047         0.000       
     209       16.5406         0.000       
     208       16.4052         0.000       
     207       16.1382         0.000       
     206       15.6645         0.000       
     205       15.5651         0.000       
     204       15.3552         0.000       
     203       15.1063         0.000       
     202       14.5993         0.000       
     201       14.5333         0.000       
     200       14.3373         0.000       
     199       14.0876         0.000       
     198       13.9924         0.000       
     197       13.8430         0.000       
     196       13.6240         0.000       
     195       13.4745         0.000       
     194       13.3220         0.000       
     193       13.0037         0.000       
     192       12.9627         0.000       
     191       12.6909         0.000       
     190       12.5691         0.000       
     189       12.5097         0.000       
     188       12.1709         0.000       
     187       11.9956         0.000       
     186       11.8486         0.000       
     185       11.5337         0.000       
     184       11.4987         0.000       
     183       11.3700         0.000       
     182       11.2363         0.000       
     181       11.1422         0.000       
     180       11.0259         0.000       
     179       10.8644         0.000       
     178       10.6895         0.000       
     177       10.6179         0.000       
     176       10.4869         0.000       
     175       10.1822         0.000       
     174       10.0721         0.000       
     173       10.0395         0.000       
     172        9.9476         0.000       
     171        9.7585         0.000       
     170        9.6293         0.000       
     169        9.4671         0.000       
     168        9.3835         0.000       
     167        9.2210         0.000       
     166        9.0726         0.000       
     165        8.9545         0.000       
     164        8.8414         0.000       
     163        8.7203         0.000       
     162        8.5413         0.000       
     161        8.3366         0.000       
     160        8.1766         0.000       
     159        8.0105         0.000       
     158        7.9582         0.000       
     157        7.8315         0.000       
     156        7.7205         0.000       
     155        7.4797         0.000       
     154        7.2935         0.000       
     153        7.1959         0.000       
     152        7.0785         0.000       
     151        6.8620         0.000       
     150        6.7212         0.000       
     149        6.5547         0.000       
     148        6.3840         0.000       
     147        6.3106         0.000       
     146        6.1561         0.000       
     145        5.9221         0.000       
     144        5.8657         0.000       
     143        5.6648         0.000       
     142        5.5327         0.000       
     141        5.4342         0.000       
     140        5.2855         0.000       
     139        5.1985         0.000       
     138        4.9763         0.000       
     137        4.8150         0.000       
     136        4.6107         0.000       
     135        4.5462         0.000       
     134        4.4819         0.000       
     133        4.2573         0.000       
     132        4.0174         0.000       
     131        3.9657         0.000       
     130        3.8053         0.000       
     129        3.7414         0.000       
     128        3.6625         0.000       
     127        3.5802         0.000       
     126        3.2915         0.000       
     125        3.2487         0.000       
     124        3.1240         0.000       
     123        2.8445         0.000       
     122        2.7175         0.000       
     121        2.4733         0.000       
     120        2.4284         0.000       
     119        2.1906         0.000       
     118        2.0604         0.000       
     117        1.8784         0.000       
     116        1.8294         0.000       
     115        1.6028         0.000       
     114        1.5789         0.000       
     113        1.2807         0.000       
     112        1.2515         0.000       
     111        1.0217         0.000       
     110        0.9770         0.000       
     109        0.9029         0.000       
     108        0.5817         0.000       
     107        0.4291         0.000       
     106        0.2894         0.000       
     105        0.2075         0.000       
     104       -0.0241         0.000       
     103       -0.0373         0.000       
     102       -0.3956         0.000       
     101       -0.5159         0.000       
     100       -0.6866         0.000       
      99       -0.7557         0.000       
      98       -1.2050         0.000       
      97       -1.4096         0.000       
      96       -2.3681         0.000       
      95       -2.8543         0.000       
      94       -2.9250         0.000       
      93       -4.1304         0.000 < LUMO
      92       -6.5086         2.000 < HOMO
      91       -6.7114         2.000       
      90       -7.2431         2.000       
      89       -7.2626         2.000       
      88       -7.5548         2.000       
      87       -7.7367         2.000       
      86       -7.9055         2.000       
      85       -8.1124         2.000       
      84       -8.5021         2.000       
      83       -8.6404         2.000       
      82       -8.7064         2.000       
      81       -8.7462         2.000       
      80       -8.9140         2.000       
      79       -8.9367         2.000       
      78       -8.9750         2.000       
      77       -9.1814         2.000       
      76       -9.3320         2.000       
      75       -9.5931         2.000       
      74       -9.6796         2.000       
      73       -9.8092         2.000       
      72       -9.9957         2.000       
      71      -10.1802         2.000       
      70      -10.2555         2.000       
      69      -10.3234         2.000       
      68      -10.3963         2.000       
      67      -10.5568         2.000       
      66      -10.6860         2.000       
      65      -11.0169         2.000       
      64      -11.3136         2.000       
      63      -11.3512         2.000       
      62      -11.4815         2.000       
      61      -11.7466         2.000       
      60      -11.7679         2.000       
      59      -12.0832         2.000       
      58      -12.2474         2.000       
      57      -12.3794         2.000       
      56      -12.5774         2.000       
      55      -12.7996         2.000       
      54      -13.2109         2.000       
      53      -13.8262         2.000       
      52      -14.0184         2.000       
      51      -14.2867         2.000       
      50      -14.7416         2.000       
      49      -15.1612         2.000       
      48      -15.5848         2.000       
      47      -15.9636         2.000       
      46      -16.4710         2.000       
      45      -17.7599         2.000       
      44      -18.1463         2.000       
      43      -18.2661         2.000       
      42      -19.2573         2.000       
      41      -19.9641         2.000       
      40      -19.9977         2.000       
      39      -20.1310         2.000       
      38      -21.1298         2.000       
      37      -21.8743         2.000       
      36      -22.4923         2.000       
      35      -22.9986         2.000       
      34      -23.4113         2.000       
      33      -26.9384         2.000       
      32      -27.0317         2.000       
      31      -27.7078         2.000       
      30      -30.1294         2.000       
      29      -31.7239         2.000       
      28     -190.8506         2.000       
      27     -190.8557         2.000       
      26     -191.1621         2.000       
      25     -251.9037         2.000       
      24     -270.6631         2.000       
      23     -270.7847         2.000       
      22     -270.8655         2.000       
      21     -270.9189         2.000       
      20     -270.9327         2.000       
      19     -271.2748         2.000       
      18     -271.3594         2.000       
      17     -271.4018         2.000       
      16     -271.6412         2.000       
      15     -271.7897         2.000       
      14     -272.7929         2.000       
      13     -273.5006         2.000       
      12     -273.6013         2.000       
      11     -274.0654         2.000       
      10     -275.3073         2.000       
       9     -381.5879         2.000       
       8     -382.1269         2.000       
       7     -384.0611         2.000       
       6     -385.2781         2.000       
       5     -512.1566         2.000       
       4     -512.2980         2.000       
       3     -661.9676         2.000       
       2     -662.0744         2.000       
       1    -2751.1525         2.000       

AMS application finished. Exiting.
NORMAL TERMINATION
     Total cpu time:     627.02
  Total system time:       2.81
 Total elapsed time:     633.23
NORMAL TERMINATION
