
 *******************************************************************************
 *                                                                             *
 *  --------------------------------                                           *
 *   Amsterdam Modeling Suite (AMS)              2026.103                      *
 *  --------------------------------                                           *
 *                                               r260501 2026-05-01 873454b5   *
 *                                                                             *
 *                                                                             *
 *                              =================                              *
 *                              |               |                              *
 *                              |     A M S     |                              *
 *                              |               |                              *
 *                              =================                              *
 *                                                                             *
 *                                                                             *
 *   Online information and documentation:  https://www.scm.com/support/       *
 *   E-mail:  support@scm.com   info@scm.com                                   *
 *                                                                             *
 *   Scientific publications using AMS results must be properly referenced     *
 *   See the User Manuals (or the web site) for recommended citations          *
 *   The terms and conditions of the End User License Agreement apply to       *
 *   the use of AMS, https://www.scm.com/license-terms/                        *
 *                                                                             *
 **********************  x86_64_linux_intel / intelmpi  ************************
 
 Licensed to: Jong-June Jeon / University of Seoul 2026-06-02 13:44:15
 SCM User ID: u30731
  
 AMS 2026.103  RunTime: Jun03-2026 18:36:27  ShM Nodes: 1  Procs: 1

 AMS jobname: c3_eda
 AMS jobid  : 713542063

 Start   directory: /gpfs/home1/yeseo1ee/projects/eda-asm-prediction/ADF_800/adf_outputs/batch_003/qmrxn20_e2_A_C_A_C_B_B/
 Results directory: /gpfs/home1/yeseo1ee/projects/eda-asm-prediction/ADF_800/adf_outputs/batch_003/qmrxn20_e2_A_C_A_C_B_B/c3_eda.results/
 Scratch directory: /tmp/amstmp_c3_eda_kid0.713542063/

 RNG seed: 2101983088 1815886933 -1893687291 -679098345 785312153 1188089865 -545932502 1854175332



                      ************************************************************************
                      *  ADF 2026.103  RunTime: Jun03-2026 18:36:27  ShM Nodes: 1  Procs: 1  *
                      ************************************************************************
  

       ****************************
       * SINGLE POINT CALCULATION *
       ****************************

--------
Geometry
--------
Formula: C4H3ClFN2
Atoms
  Index Symbol   x (angstrom)   y (angstrom)   z (angstrom)
      1      F    -2.27687838     0.86877638     2.21551313 adf.f=fA
      2      H    -1.54217622     0.40408121     1.77774029 adf.f=fA
      3      C     0.20938968     0.26423592    -0.30607928 adf.f=fB
      4      C    -0.08818283    -0.27719319     1.08202292 adf.f=fB
      5     Cl     1.19569856     1.78152232    -0.22088967 adf.f=fB
      6      H     0.80313846    -0.41472225    -0.93156443 adf.f=fB
      7      H     0.61196443     0.12211277     1.81607700 adf.f=fB
      8      C    -1.00159984     0.58930245    -1.07327359 adf.f=fB
      9      N    -1.96153844     0.80518785    -1.71516016 adf.f=fB
     10      C    -0.10160141    -1.69813427     1.08472947 adf.f=fB
     11      N    -0.16442401    -2.88010919     1.06930433 adf.f=fB

Total System Charge             -1.00000


----------------
ADF Engine Input
----------------
 
   Basis
     Type TZ2P
     Core None
   End
   XC
     GGA BLYP
     Dispersion GRIMME3 BJDAMP
   End
   Symmetry NOSYM
   NumericalQuality Normal
   Unrestricted No
   SCF
     Iterations 200
     Converge 1.0e-6
   End
   fragments
     fA c1_fragA_ts.results/adf.rkf
     fB c2_fragB_ts.results/adf.rkf
   end
   etsnocv
     enocv 0.05
     ekmin 0.5
   end
   print etslowdin
   Save TAPE21
 

 Title: *** (NO TITLE) ***

 *** adf ***



 ===========================
 A T T A C H E D   F I L E S
 ===========================
  



 ===============================
 M O D E L   P A R A M E T E R S
 ===============================
  
 DENSITY FUNCTIONAL POTENTIAL (scf)
    LDA:                               Exchange only                           == Not Default ==
    Gradient Corrections:              Becke88 LYP                             == Not Default ==

 SPIN  (restricted / unrestr.)
    Molecule:                          Restricted                               
    Fragments:                         Restricted                               

 OTHER ASPECTS
    Relativistic Corrections:          scalar (ZORA,MAPA)                       

    Nuclear Charge Density Model:      Point Charge Nuclei                      
    Core Treatment:                    Frozen Orbital(s)                        

    Hyperfine or Zeeman Interaction:   ---                                      

 Settings for Grimme D3 dispersion correction

      damping                        BJ
      s6                          1.000
      s8                          2.700
      a1                          0.430
      a2                          4.236

 Other (technical) parameters

      alpha                      14.000
      version                         4
 


 Fragment File(s)
 ----------------
 fA:
         file : c1_fragA_ts.results/adf.rkf
         jobid: 859152131
         title: *** adf ***
 fB:
         file : c2_fragB_ts.results/adf.rkf
         jobid: 115792562
         title: *** adf ***



 ===============
 G E O M E T R Y  ***  3D  Molecule  ***
 ===============
  

 ATOMS
 =====                            X Y Z                    CHARGE
                                (Angstrom)             Nucl     +Core       At.Mass
                       --------------------------    ----------------       -------
    1  F              -2.2769    0.8688    2.2155      9.00      9.00       18.9984
    2  H              -1.5422    0.4041    1.7777      1.00      1.00        1.0078
    3  C               0.2094    0.2642   -0.3061      6.00      6.00       12.0000
    4  C              -0.0882   -0.2772    1.0820      6.00      6.00       12.0000
    5  Cl              1.1957    1.7815   -0.2209     17.00     17.00       34.9689
    6  H               0.8031   -0.4147   -0.9316      1.00      1.00        1.0078
    7  H               0.6120    0.1221    1.8161      1.00      1.00        1.0078
    8  C              -1.0016    0.5893   -1.0733      6.00      6.00       12.0000
    9  N              -1.9615    0.8052   -1.7152      7.00      7.00       14.0031
   10  C              -0.1016   -1.6981    1.0847      6.00      6.00       12.0000
   11  N              -0.1644   -2.8801    1.0693      7.00      7.00       14.0031


 FRAGMENTS
 =========                                     Atoms in this Fragment     Cart. coord.s (Angstrom)
                                               -------------------------------------------------------
    1  fA                                                1  F           -2.2769    0.8688    2.2155
                                                         2  H           -1.5422    0.4041    1.7777
    2  fB                                                3  C            0.2094    0.2642   -0.3061
                                                         4  C           -0.0882   -0.2772    1.0820
                                                         8  C           -1.0016    0.5893   -1.0733
                                                        10  C           -0.1016   -1.6981    1.0847
                                                         5  Cl           1.1957    1.7815   -0.2209
                                                         6  H            0.8031   -0.4147   -0.9316
                                                         7  H            0.6120    0.1221    1.8161
                                                         9  N           -1.9615    0.8052   -1.7152
                                                        11  N           -0.1644   -2.8801    1.0693


 Interatomic Distance Matrix (Angstrom)
 --------------------------------------

   1)     0.000
   2)     0.973   0.000
   3)     3.592   2.726   0.000
   4)     2.718   1.750   1.519   0.000
   5)     4.339   3.659   1.812   2.754   0.000
   6)     4.587   3.676   1.098   2.206   2.342   0.000
   7)     3.010   2.173   2.165   1.090   2.691   2.806   0.000
   8)     3.538   2.908   1.470   2.496   2.641   2.070   3.342   0.000
   9)     3.944   3.541   2.644   3.536   3.627   3.122   4.423   1.175   0.000
  10)     3.550   2.641   2.425   1.421   3.936   2.556   2.087   3.271   4.191   0.000
  11)     4.453   3.631   3.452   2.604   5.024   3.319   3.190   4.163   4.956   1.184
          0.000

 Min. Distance =    0.9733
 Max. Distance =    5.0245



 =====================================
 S Y M M E T R Y ,   E L E C T R O N S
 =====================================
  
 Symmetry: NOSYM

 Irreducible Representations, including subspecies
 -------------------------------------------------
 A


 Configuration of Valence Electrons
 ==================================
 ( determined in the SCF procedure )

 Total:   68

 Net Charge: -1 (Nuclei minus Electrons)

 Aufbau principle for MO occupations will be applied through SCF cycle no.     100
 Thereafter, the program will assign electrons to MOs that are spatially
 similar to the occupied MOs in a "reference" cycle ("KeepOrbitals").
 The reference cycle is always the PREVIOUS cycle: it will evolve with
 the SCF procedure.
 ***************************************************************************************************



                                      ****************************************
                                      *  B U I L D : (Fragments, Functions)  *
                                      ****************************************
  

 The individual fragments are copies of the corresponding 'Master' fragments defined on the fragment files.
 However, they may have been rotated (and translated) with respect to the Master. The local coordinate axes
 of each fragment (which define for instance the spatial orientation in the current molecule of a fragment
 P:x orbital) are not necessarily those of the molecule.
 The local frame (if different from the molecular one) is printed to enable an interpretation of the expan-
 sion of an MO in Fragment Orbitals.



                                              ************************
                                              *  Fragment Type : fA  *
                                              ************************
  

 Fragment no.    1   (in the list of all fragments)
 -----------------
 The local coordinate frame is identical to the molecular frame.

 Check Atomic Coordinates:

                  Master (on file)          After Computed Tranformation               As specified on Input
           ----------------------------     ----------------------------     ---------------------------------
     1)    -2.27688   0.86878   2.21551     -2.27688   0.86878   2.21551       1  -2.27688   0.86878   2.21551
     2)    -1.54218   0.40408   1.77774     -1.54218   0.40408   1.77774       2  -1.54218   0.40408   1.77774



                                              ************************
                                              *  Fragment Type : fB  *
                                              ************************
  

 Fragment no.    2   (in the list of all fragments)
 -----------------
 The local coordinate frame is identical to the molecular frame.

 Check Atomic Coordinates:

                  Master (on file)          After Computed Tranformation               As specified on Input
           ----------------------------     ----------------------------     ---------------------------------
     1)     0.20939   0.26424  -0.30608      0.20939   0.26424  -0.30608       3   0.20939   0.26424  -0.30608
     2)    -0.08818  -0.27719   1.08202     -0.08818  -0.27719   1.08202       4  -0.08818  -0.27719   1.08202
     3)    -1.00160   0.58930  -1.07327     -1.00160   0.58930  -1.07327       8  -1.00160   0.58930  -1.07327
     4)    -0.10160  -1.69813   1.08473     -0.10160  -1.69813   1.08473      10  -0.10160  -1.69813   1.08473
     5)     1.19570   1.78152  -0.22089      1.19570   1.78152  -0.22089       5   1.19570   1.78152  -0.22089
     6)     0.80314  -0.41472  -0.93156      0.80314  -0.41472  -0.93156       6   0.80314  -0.41472  -0.93156
     7)     0.61196   0.12211   1.81608      0.61196   0.12211   1.81608       7   0.61196   0.12211   1.81608
     8)    -1.96154   0.80519  -1.71516     -1.96154   0.80519  -1.71516       9  -1.96154   0.80519  -1.71516
     9)    -0.16442  -2.88011   1.06930     -0.16442  -2.88011   1.06930      11  -0.16442  -2.88011   1.06930



 =======
 S F O s  ***  (Symmetrized Fragment Orbitals)  ***
 =======
  
 SFOs are linear combinations of (valence) Fragment Orbitals (FOs), such that the SFOs transform as the
 irreducible representations of the (molecular) symmetry group. Each SFO is therefore characterized by
 an irrep of the molecule and by a few (or only one) generating FOs.
 The SFOs constitute a symmetry-adapted basis for the Fock matrix. The MO eigenvector coefficients in
 this basis provide a direct interpretation of the MOs in terms of Frontier Orbital Theory.

 The SFOs are combined with auxiliary Core Functions (CFs) to ensure orthogonalization on the (frozen)
 Core Orbitals (COs). The Core-orthogonalized SFOs (CSFOs) constitute the true Fock basis.

 The FOs, and hence also the (C)SFOs are combinations of the elementary basis functions (BAS). The basis
 functions that participate in the description of the SFOs depend on the irrep. The indices of the
 involved functions are printed below for each irrep.
 (The complete list of primitive basis functions is printed in another section)

 Total nr. of (C)SFOs (summation over all irreps) :   249

 NOTE: a (C)SFO that is defined as a combination of more than one FO is usually NOT normalized.



                                       === A ===
 Nr. of SFOs :  249
 Cartesian basis functions that participate in this irrep (total number =   284) :
      1     2     3     4     5     6     9    12     7    10
     13     8    11    14    15    16    17    18    19    20
     21    22    23    24    25    26    27    28    29    30
     31    32    33    34    35    36    37    38    39    40
     41    42    43    44    45    46    47    48    51    54
     49    52    55    50    53    56    57    58    59    60
     61    62    63    64    65    66    67    68    69    70
     71    72    73    74    75    76    77    78    81    84
     79    82    85    80    83    86    87    88    89    90
     91    92    93    94    95    96    97    98    99   100
    101   102   103   104   105   106   107   108   111   114
    109   112   115   110   113   116   117   118   119   120
    121   122   123   124   125   126   127   128   129   130
    131   132   133   134   135   136   137   138   141   144
    139   142   145   140   143   146   147   148   149   150
    151   152   153   154   155   156   157   158   159   160
    161   162   163   164   165   166   173   174   175   167
    170   176   179   182   168   171   177   180   183   169
    172   178   181   184   185   186   187   188   189   190
    191   192   193   194   195   196   197   198   199   200
    201   202   203   204   205   206   207   208   209   210
    211   212   213   214   215   216   217   218   219   220
    221   222   223   224   225   226   227   228   229   230
    233   236   231   234   237   232   235   238   239   240
    241   242   243   244   245   246   247   248   249   250
    251   252   253   254   255   256   257   258   259   260
    263   266   261   264   267   262   265   268   269   270
    271   272   273   274   275   276   277   278   279   280
    281   282   283   284

    SFO  (index         Fragment          Generating    Expansion in Fragment Orbitals
  indx  incl.CFs)   Occup   Orb.Energy   FragmentType  Coeff.   Orbital     on Fragment
 --------------------------------------------------------------------------------------
     1       1      2.000     -24.040 au  fA            1.00      1 A               1
                        (    -654.159 eV)
     2       2      2.000      -0.822 au  fA            1.00      2 A               1
                        (     -22.366 eV)
     3       3      2.000      -0.223 au  fA            1.00      3 A               1
                        (      -6.063 eV)
     4       4      2.000      -0.094 au  fA            1.00      4 A               1
                        (      -2.549 eV)
     5       5      2.000      -0.094 au  fA            1.00      5 A               1
                        (      -2.548 eV)
     6       6      1.000       0.157 au  fA            1.00      6 A               1
                        (       4.285 eV)
     7       7       --         0.236 au  fA            1.00      7 A               1
                        (       6.419 eV)
     8       8       --         0.414 au  fA            1.00      8 A               1
                        (      11.277 eV)
     9       9       --         0.643 au  fA            1.00      9 A               1
                        (      17.507 eV)
    10      10       --         0.643 au  fA            1.00     10 A               1
                        (      17.508 eV)
    11      11       --         0.840 au  fA            1.00     11 A               1
                        (      22.868 eV)
    12      12       --         0.879 au  fA            1.00     12 A               1
                        (      23.917 eV)
    13      13       --         0.879 au  fA            1.00     13 A               1
                        (      23.917 eV)
    14      14       --         1.008 au  fA            1.00     14 A               1
                        (      27.430 eV)
    15      15       --         1.385 au  fA            1.00     15 A               1
                        (      37.701 eV)
    16      16       --         1.386 au  fA            1.00     16 A               1
                        (      37.702 eV)
    17      17       --         1.429 au  fA            1.00     17 A               1
                        (      38.893 eV)
    18      18       --         1.876 au  fA            1.00     18 A               1
                        (      51.061 eV)
    19      19       --         1.876 au  fA            1.00     19 A               1
                        (      51.061 eV)
    20      20       --         2.286 au  fA            1.00     20 A               1
                        (      62.210 eV)
    21      21       --         2.877 au  fA            1.00     21 A               1
                        (      78.281 eV)
    22      22       --         2.877 au  fA            1.00     22 A               1
                        (      78.291 eV)
    23      23       --         3.417 au  fA            1.00     23 A               1
                        (      92.977 eV)
    24      24       --         3.702 au  fA            1.00     24 A               1
                        (     100.741 eV)
    25      25       --         3.702 au  fA            1.00     25 A               1
                        (     100.745 eV)
    26      26       --         3.721 au  fA            1.00     26 A               1
                        (     101.248 eV)
    27      27       --         3.721 au  fA            1.00     27 A               1
                        (     101.249 eV)
    28      28       --         4.112 au  fA            1.00     28 A               1
                        (     111.880 eV)
    29      29       --         4.494 au  fA            1.00     29 A               1
                        (     122.281 eV)
    30      30       --         4.494 au  fA            1.00     30 A               1
                        (     122.289 eV)
    31      31       --         4.713 au  fA            1.00     31 A               1
                        (     128.248 eV)
    32      32       --         4.713 au  fA            1.00     32 A               1
                        (     128.249 eV)
    33      33       --         4.879 au  fA            1.00     33 A               1
                        (     132.757 eV)
    34      34       --         5.832 au  fA            1.00     34 A               1
                        (     158.698 eV)
    35      35       --         5.832 au  fA            1.00     35 A               1
                        (     158.700 eV)
    36      36       --         5.958 au  fA            1.00     36 A               1
                        (     162.131 eV)
    37      37       --        53.155 au  fA            1.00     37 A               1
                        (    1446.426 eV)
    38      38      2.000    -101.122 au  fB            1.00      1 A               2
                        (   -2751.675 eV)
    39      39      2.000     -14.073 au  fB            1.00      2 A               2
                        (    -382.935 eV)
    40      40      2.000     -14.057 au  fB            1.00      3 A               2
                        (    -382.516 eV)
    41      41      2.000     -10.076 au  fB            1.00      4 A               2
                        (    -274.172 eV)
    42      42      2.000     -10.032 au  fB            1.00      5 A               2
                        (    -272.973 eV)
    43      43      2.000     -10.007 au  fB            1.00      6 A               2
                        (    -272.315 eV)
    44      44      2.000      -9.996 au  fB            1.00      7 A               2
                        (    -272.008 eV)
    45      45      2.000      -9.276 au  fB            1.00      8 A               2
                        (    -252.416 eV)
    46      46      2.000      -7.044 au  fB            1.00      9 A               2
                        (    -191.684 eV)
    47      47      2.000      -7.033 au  fB            1.00     10 A               2
                        (    -191.368 eV)
    48      48      2.000      -7.032 au  fB            1.00     11 A               2
                        (    -191.357 eV)
    49      49      2.000      -0.872 au  fB            1.00     12 A               2
                        (     -23.738 eV)
    50      50      2.000      -0.859 au  fB            1.00     13 A               2
                        (     -23.379 eV)
    51      51      2.000      -0.834 au  fB            1.00     14 A               2
                        (     -22.690 eV)
    52      52      2.000      -0.755 au  fB            1.00     15 A               2
                        (     -20.542 eV)
    53      53      2.000      -0.671 au  fB            1.00     16 A               2
                        (     -18.250 eV)
    54      54      2.000      -0.528 au  fB            1.00     17 A               2
                        (     -14.359 eV)
    55      55      2.000      -0.516 au  fB            1.00     18 A               2
                        (     -14.030 eV)
    56      56      2.000      -0.472 au  fB            1.00     19 A               2
                        (     -12.831 eV)
    57      57      2.000      -0.430 au  fB            1.00     20 A               2
                        (     -11.709 eV)
    58      58      2.000      -0.368 au  fB            1.00     21 A               2
                        (     -10.006 eV)
    59      59      2.000      -0.357 au  fB            1.00     22 A               2
                        (      -9.705 eV)
    60      60      2.000      -0.347 au  fB            1.00     23 A               2
                        (      -9.432 eV)
    61      61      2.000      -0.340 au  fB            1.00     24 A               2
                        (      -9.264 eV)
    62      62      2.000      -0.329 au  fB            1.00     25 A               2
                        (      -8.958 eV)
    63      63      2.000      -0.325 au  fB            1.00     26 A               2
                        (      -8.838 eV)
    64      64      2.000      -0.309 au  fB            1.00     27 A               2
                        (      -8.422 eV)
    65      65      2.000      -0.304 au  fB            1.00     28 A               2
                        (      -8.269 eV)
    66      66      1.000      -0.244 au  fB            1.00     29 A               2
                        (      -6.642 eV)
    67      67       --        -0.104 au  fB            1.00     30 A               2
                        (      -2.829 eV)
    68      68       --        -0.062 au  fB            1.00     31 A               2
                        (      -1.675 eV)
    69      69       --        -0.055 au  fB            1.00     32 A               2
                        (      -1.497 eV)
    70      70       --        -0.024 au  fB            1.00     33 A               2
                        (      -0.659 eV)
    71      71       --        -0.012 au  fB            1.00     34 A               2
                        (      -0.338 eV)
    72      72       --         0.004 au  fB            1.00     35 A               2
                        (       0.122 eV)
    73      73       --         0.008 au  fB            1.00     36 A               2
                        (       0.230 eV)
    74      74       --         0.045 au  fB            1.00     37 A               2
                        (       1.224 eV)
    75      75       --         0.061 au  fB            1.00     38 A               2
                        (       1.653 eV)
    76      76       --         0.096 au  fB            1.00     39 A               2
                        (       2.605 eV)
    77      77       --         0.119 au  fB            1.00     40 A               2
                        (       3.230 eV)
    78      78       --         0.130 au  fB            1.00     41 A               2
                        (       3.549 eV)
    79      79       --         0.152 au  fB            1.00     42 A               2
                        (       4.134 eV)
    80      80       --         0.157 au  fB            1.00     43 A               2
                        (       4.272 eV)
    81      81       --         0.169 au  fB            1.00     44 A               2
                        (       4.612 eV)
    82      82       --         0.182 au  fB            1.00     45 A               2
                        (       4.939 eV)
    83      83       --         0.196 au  fB            1.00     46 A               2
                        (       5.325 eV)
    84      84       --         0.219 au  fB            1.00     47 A               2
                        (       5.973 eV)
    85      85       --         0.235 au  fB            1.00     48 A               2
                        (       6.407 eV)
    86      86       --         0.245 au  fB            1.00     49 A               2
                        (       6.670 eV)
    87      87       --         0.260 au  fB            1.00     50 A               2
                        (       7.084 eV)
    88      88       --         0.270 au  fB            1.00     51 A               2
                        (       7.345 eV)
    89      89       --         0.285 au  fB            1.00     52 A               2
                        (       7.769 eV)
    90      90       --         0.296 au  fB            1.00     53 A               2
                        (       8.053 eV)
    91      91       --         0.314 au  fB            1.00     54 A               2
                        (       8.540 eV)
    92      92       --         0.345 au  fB            1.00     55 A               2
                        (       9.380 eV)
    93      93       --         0.358 au  fB            1.00     56 A               2
                        (       9.736 eV)
    94      94       --         0.373 au  fB            1.00     57 A               2
                        (      10.147 eV)
    95      95       --         0.395 au  fB            1.00     58 A               2
                        (      10.759 eV)
    96      96       --         0.406 au  fB            1.00     59 A               2
                        (      11.049 eV)
    97      97       --         0.433 au  fB            1.00     60 A               2
                        (      11.786 eV)
    98      98       --         0.441 au  fB            1.00     61 A               2
                        (      11.997 eV)
    99      99       --         0.470 au  fB            1.00     62 A               2
                        (      12.796 eV)
   100     100       --         0.503 au  fB            1.00     63 A               2
                        (      13.679 eV)
   101     101       --         0.560 au  fB            1.00     64 A               2
                        (      15.251 eV)
   102     102       --         0.574 au  fB            1.00     65 A               2
                        (      15.609 eV)
   103     103       --         0.620 au  fB            1.00     66 A               2
                        (      16.871 eV)
   104     104       --         0.636 au  fB            1.00     67 A               2
                        (      17.299 eV)
   105     105       --         0.641 au  fB            1.00     68 A               2
                        (      17.453 eV)
   106     106       --         0.664 au  fB            1.00     69 A               2
                        (      18.065 eV)
   107     107       --         0.700 au  fB            1.00     70 A               2
                        (      19.046 eV)
   108     108       --         0.736 au  fB            1.00     71 A               2
                        (      20.031 eV)
   109     109       --         0.803 au  fB            1.00     72 A               2
                        (      21.851 eV)
   110     110       --         0.816 au  fB            1.00     73 A               2
                        (      22.197 eV)
   111     111       --         0.881 au  fB            1.00     74 A               2
                        (      23.962 eV)
   112     112       --         0.902 au  fB            1.00     75 A               2
                        (      24.552 eV)
   113     113       --         0.960 au  fB            1.00     76 A               2
                        (      26.113 eV)
   114     114       --         0.970 au  fB            1.00     77 A               2
                        (      26.407 eV)
   115     115       --         1.005 au  fB            1.00     78 A               2
                        (      27.355 eV)
   116     116       --         1.021 au  fB            1.00     79 A               2
                        (      27.777 eV)
   117     117       --         1.042 au  fB            1.00     80 A               2
                        (      28.358 eV)
   118     118       --         1.080 au  fB            1.00     81 A               2
                        (      29.396 eV)
   119     119       --         1.099 au  fB            1.00     82 A               2
                        (      29.910 eV)
   120     120       --         1.109 au  fB            1.00     83 A               2
                        (      30.191 eV)
   121     121       --         1.145 au  fB            1.00     84 A               2
                        (      31.160 eV)
   122     122       --         1.162 au  fB            1.00     85 A               2
                        (      31.615 eV)
   123     123       --         1.167 au  fB            1.00     86 A               2
                        (      31.749 eV)
   124     124       --         1.202 au  fB            1.00     87 A               2
                        (      32.711 eV)
   125     125       --         1.215 au  fB            1.00     88 A               2
                        (      33.064 eV)
   126     126       --         1.236 au  fB            1.00     89 A               2
                        (      33.630 eV)
   127     127       --         1.262 au  fB            1.00     90 A               2
                        (      34.338 eV)
   128     128       --         1.264 au  fB            1.00     91 A               2
                        (      34.388 eV)
   129     129       --         1.301 au  fB            1.00     92 A               2
                        (      35.408 eV)
   130     130       --         1.312 au  fB            1.00     93 A               2
                        (      35.703 eV)
   131     131       --         1.333 au  fB            1.00     94 A               2
                        (      36.280 eV)
   132     132       --         1.385 au  fB            1.00     95 A               2
                        (      37.678 eV)
   133     133       --         1.443 au  fB            1.00     96 A               2
                        (      39.255 eV)
   134     134       --         1.460 au  fB            1.00     97 A               2
                        (      39.722 eV)
   135     135       --         1.518 au  fB            1.00     98 A               2
                        (      41.302 eV)
   136     136       --         1.547 au  fB            1.00     99 A               2
                        (      42.104 eV)
   137     137       --         1.567 au  fB            1.00    100 A               2
                        (      42.648 eV)
   138     138       --         1.604 au  fB            1.00    101 A               2
                        (      43.643 eV)
   139     139       --         1.631 au  fB            1.00    102 A               2
                        (      44.393 eV)
   140     140       --         1.654 au  fB            1.00    103 A               2
                        (      45.008 eV)
   141     141       --         1.719 au  fB            1.00    104 A               2
                        (      46.768 eV)
   142     142       --         1.726 au  fB            1.00    105 A               2
                        (      46.973 eV)
   143     143       --         1.766 au  fB            1.00    106 A               2
                        (      48.067 eV)
   144     144       --         1.838 au  fB            1.00    107 A               2
                        (      50.018 eV)
   145     145       --         1.857 au  fB            1.00    108 A               2
                        (      50.528 eV)
   146     146       --         1.982 au  fB            1.00    109 A               2
                        (      53.927 eV)
   147     147       --         2.035 au  fB            1.00    110 A               2
                        (      55.368 eV)
   148     148       --         2.091 au  fB            1.00    111 A               2
                        (      56.903 eV)
   149     149       --         2.103 au  fB            1.00    112 A               2
                        (      57.238 eV)
   150     150       --         2.182 au  fB            1.00    113 A               2
                        (      59.379 eV)
   151     151       --         2.207 au  fB            1.00    114 A               2
                        (      60.065 eV)
   152     152       --         2.242 au  fB            1.00    115 A               2
                        (      61.014 eV)
   153     153       --         2.259 au  fB            1.00    116 A               2
                        (      61.482 eV)
   154     154       --         2.279 au  fB            1.00    117 A               2
                        (      62.004 eV)
   155     155       --         2.308 au  fB            1.00    118 A               2
                        (      62.792 eV)
   156     156       --         2.364 au  fB            1.00    119 A               2
                        (      64.318 eV)
   157     157       --         2.395 au  fB            1.00    120 A               2
                        (      65.171 eV)
   158     158       --         2.403 au  fB            1.00    121 A               2
                        (      65.382 eV)
   159     159       --         2.409 au  fB            1.00    122 A               2
                        (      65.564 eV)
   160     160       --         2.498 au  fB            1.00    123 A               2
                        (      67.970 eV)
   161     161       --         2.553 au  fB            1.00    124 A               2
                        (      69.474 eV)
   162     162       --         2.577 au  fB            1.00    125 A               2
                        (      70.111 eV)
   163     163       --         2.620 au  fB            1.00    126 A               2
                        (      71.294 eV)
   164     164       --         2.658 au  fB            1.00    127 A               2
                        (      72.333 eV)
   165     165       --         2.707 au  fB            1.00    128 A               2
                        (      73.655 eV)
   166     166       --         2.769 au  fB            1.00    129 A               2
                        (      75.344 eV)
   167     167       --         2.823 au  fB            1.00    130 A               2
                        (      76.817 eV)
   168     168       --         2.875 au  fB            1.00    131 A               2
                        (      78.225 eV)
   169     169       --         2.904 au  fB            1.00    132 A               2
                        (      79.026 eV)
   170     170       --         2.958 au  fB            1.00    133 A               2
                        (      80.499 eV)
   171     171       --         3.071 au  fB            1.00    134 A               2
                        (      83.558 eV)
   172     172       --         3.112 au  fB            1.00    135 A               2
                        (      84.683 eV)
   173     173       --         3.248 au  fB            1.00    136 A               2
                        (      88.376 eV)
   174     174       --         3.356 au  fB            1.00    137 A               2
                        (      91.332 eV)
   175     175       --         3.429 au  fB            1.00    138 A               2
                        (      93.321 eV)
   176     176       --         3.481 au  fB            1.00    139 A               2
                        (      94.734 eV)
   177     177       --         3.534 au  fB            1.00    140 A               2
                        (      96.158 eV)
   178     178       --         3.570 au  fB            1.00    141 A               2
                        (      97.145 eV)
   179     179       --         3.600 au  fB            1.00    142 A               2
                        (      97.950 eV)
   180     180       --         3.691 au  fB            1.00    143 A               2
                        (     100.451 eV)
   181     181       --         3.710 au  fB            1.00    144 A               2
                        (     100.952 eV)
   182     182       --         3.730 au  fB            1.00    145 A               2
                        (     101.510 eV)
   183     183       --         3.771 au  fB            1.00    146 A               2
                        (     102.606 eV)
   184     184       --         3.779 au  fB            1.00    147 A               2
                        (     102.839 eV)
   185     185       --         3.786 au  fB            1.00    148 A               2
                        (     103.023 eV)
   186     186       --         3.798 au  fB            1.00    149 A               2
                        (     103.346 eV)
   187     187       --         3.807 au  fB            1.00    150 A               2
                        (     103.588 eV)
   188     188       --         3.823 au  fB            1.00    151 A               2
                        (     104.040 eV)
   189     189       --         3.837 au  fB            1.00    152 A               2
                        (     104.406 eV)
   190     190       --         3.842 au  fB            1.00    153 A               2
                        (     104.551 eV)
   191     191       --         3.859 au  fB            1.00    154 A               2
                        (     105.007 eV)
   192     192       --         3.951 au  fB            1.00    155 A               2
                        (     107.513 eV)
   193     193       --         3.976 au  fB            1.00    156 A               2
                        (     108.194 eV)
   194     194       --         4.083 au  fB            1.00    157 A               2
                        (     111.115 eV)
   195     195       --         4.201 au  fB            1.00    158 A               2
                        (     114.319 eV)
   196     196       --         4.286 au  fB            1.00    159 A               2
                        (     116.626 eV)
   197     197       --         4.329 au  fB            1.00    160 A               2
                        (     117.806 eV)
   198     198       --         4.351 au  fB            1.00    161 A               2
                        (     118.393 eV)
   199     199       --         4.368 au  fB            1.00    162 A               2
                        (     118.848 eV)
   200     200       --         4.375 au  fB            1.00    163 A               2
                        (     119.060 eV)
   201     201       --         4.430 au  fB            1.00    164 A               2
                        (     120.535 eV)
   202     202       --         4.503 au  fB            1.00    165 A               2
                        (     122.520 eV)
   203     203       --         4.548 au  fB            1.00    166 A               2
                        (     123.768 eV)
   204     204       --         4.734 au  fB            1.00    167 A               2
                        (     128.817 eV)
   205     205       --         4.755 au  fB            1.00    168 A               2
                        (     129.394 eV)
   206     206       --         4.864 au  fB            1.00    169 A               2
                        (     132.354 eV)
   207     207       --         4.942 au  fB            1.00    170 A               2
                        (     134.477 eV)
   208     208       --         4.963 au  fB            1.00    171 A               2
                        (     135.039 eV)
   209     209       --         5.035 au  fB            1.00    172 A               2
                        (     137.022 eV)
   210     210       --         5.123 au  fB            1.00    173 A               2
                        (     139.393 eV)
   211     211       --         5.182 au  fB            1.00    174 A               2
                        (     141.001 eV)
   212     212       --         5.326 au  fB            1.00    175 A               2
                        (     144.923 eV)
   213     213       --         5.382 au  fB            1.00    176 A               2
                        (     146.453 eV)
   214     214       --         5.476 au  fB            1.00    177 A               2
                        (     148.997 eV)
   215     215       --         5.511 au  fB            1.00    178 A               2
                        (     149.950 eV)
   216     216       --         5.570 au  fB            1.00    179 A               2
                        (     151.568 eV)
   217     217       --         5.675 au  fB            1.00    180 A               2
                        (     154.413 eV)
   218     218       --         5.915 au  fB            1.00    181 A               2
                        (     160.964 eV)
   219     219       --         5.972 au  fB            1.00    182 A               2
                        (     162.502 eV)
   220     220       --         6.079 au  fB            1.00    183 A               2
                        (     165.414 eV)
   221     221       --         6.141 au  fB            1.00    184 A               2
                        (     167.111 eV)
   222     222       --         6.187 au  fB            1.00    185 A               2
                        (     168.344 eV)
   223     223       --         6.243 au  fB            1.00    186 A               2
                        (     169.868 eV)
   224     224       --         6.327 au  fB            1.00    187 A               2
                        (     172.170 eV)
   225     225       --         6.561 au  fB            1.00    188 A               2
                        (     178.546 eV)
   226     226       --         6.927 au  fB            1.00    189 A               2
                        (     188.488 eV)
   227     227       --         7.106 au  fB            1.00    190 A               2
                        (     193.365 eV)
   228     228       --         7.202 au  fB            1.00    191 A               2
                        (     195.979 eV)
   229     229       --         7.493 au  fB            1.00    192 A               2
                        (     203.901 eV)
   230     230       --         7.521 au  fB            1.00    193 A               2
                        (     204.663 eV)
   231     231       --         7.548 au  fB            1.00    194 A               2
                        (     205.384 eV)
   232     232       --         7.577 au  fB            1.00    195 A               2
                        (     206.169 eV)
   233     233       --         7.785 au  fB            1.00    196 A               2
                        (     211.831 eV)
   234     234       --         7.801 au  fB            1.00    197 A               2
                        (     212.283 eV)
   235     235       --         8.474 au  fB            1.00    198 A               2
                        (     230.598 eV)
   236     236       --         8.851 au  fB            1.00    199 A               2
                        (     240.837 eV)
   237     237       --        11.122 au  fB            1.00    200 A               2
                        (     302.650 eV)
   238     238       --        11.335 au  fB            1.00    201 A               2
                        (     308.446 eV)
   239     239       --        13.840 au  fB            1.00    202 A               2
                        (     376.607 eV)
   240     240       --        18.938 au  fB            1.00    203 A               2
                        (     515.340 eV)
   241     241       --        19.015 au  fB            1.00    204 A               2
                        (     517.422 eV)
   242     242       --        19.685 au  fB            1.00    205 A               2
                        (     535.660 eV)
   243     243       --        53.840 au  fB            1.00    206 A               2
                        (    1465.049 eV)
   244     244       --        55.188 au  fB            1.00    207 A               2
                        (    1501.735 eV)
   245     245       --        57.043 au  fB            1.00    208 A               2
                        (    1552.208 eV)
   246     246       --        58.214 au  fB            1.00    209 A               2
                        (    1584.087 eV)
   247     247       --        69.307 au  fB            1.00    210 A               2
                        (    1885.927 eV)
   248     248       --        69.702 au  fB            1.00    211 A               2
                        (    1896.683 eV)
   249     249       --       209.703 au  fB            1.00    212 A               2
                        (    5706.309 eV)



 ================================
 (Slater-type)  F U N C T I O N S  ***  (Basis and Fit)  ***
 ================================
  

 Atom Type    1  (F)
 ==============

 Valence Basis Sets:  10
 -----------------------
   1 S   10.880000
   1 S    7.700000
   2 S    3.240000
   2 S    1.940000
   2 S    0.740000
   2 P    4.540000
   2 P    2.300000
   2 P    1.240000
   3 D    2.000000
   4 F    3.000000

 Atom Type    2  (H)
 ==============

 Valence Basis Sets:   5
 -----------------------
   1 S    0.690000
   1 S    0.920000
   1 S    1.580000
   2 P    1.250000
   3 D    2.500000

 Atom Type    3  (C)
 ==============

 Valence Basis Sets:  10
 -----------------------
   1 S    7.680000
   1 S    5.000000
   2 S    1.280000
   2 S    2.100000
   2 S    4.600000
   2 P    0.820000
   2 P    1.480000
   2 P    2.940000
   3 D    2.200000
   4 F    3.300000

 Atom Type    4  (Cl)
 ==============

 Valence Basis Sets:  14
 -----------------------
   1 S   20.300000
   1 S   15.250000
   2 S    6.250000
   2 S    4.450000
   2 P    8.850000
   2 P    5.050000
   3 S    3.450000
   3 S    2.300000
   3 S    1.600000
   3 P    3.350000
   3 P    2.050000
   3 P    1.200000
   3 D    2.000000
   4 F    2.000000

 Atom Type    5  (H)
 ==============

 Valence Basis Sets:   5
 -----------------------
   1 S    0.690000
   1 S    0.920000
   1 S    1.580000
   2 P    1.250000
   3 D    2.500000

 Atom Type    6  (N)
 ==============

 Valence Basis Sets:  10
 -----------------------
   1 S    8.740000
   1 S    5.900000
   2 S    5.150000
   2 S    2.500000
   2 S    1.500000
   2 P    3.680000
   2 P    1.880000
   2 P    1.000000
   3 D    2.200000
   4 F    3.300000


 BAS: List of all Elementary Cartesian Basis Functions
 =====================================================

 The numbering in the list below (to the right of the function characteristics) is referred
 to in print-outs of MO eigenvectors and Mulliken populations in the BAS representation
 (as contrasted to the SFO representation).

 Notes:
 1. The functions are characterized by a polynomial prefactor (powers of x,y,z and r) and
    an exponential decay factor alpha.
 2. Since the basis sets are specific for an atom TYPE, the individual functions occur on
    all atoms of that type.
 3. The word 'Core' in the left margin signals that it is a Core Function (CF) : not a
    degree of freedom in the valence set, but only used to ensure orthogonalization of
    the other valence basis functions on the frozen Core Orbitals.


 (power of) X  Y  Z  R     Alpha  on Atom
            ==========     =====     ==========

 F                                    1
                                  ---------------------------------------------------------------------------
            0  0  0  0    10.880      1
            0  0  0  0     7.700      2
            0  0  0  1     3.240      3
            0  0  0  1     1.940      4
            0  0  0  1     0.740      5
            1  0  0  0     4.540      6
            0  1  0  0     4.540      7
            0  0  1  0     4.540      8
            1  0  0  0     2.300      9
            0  1  0  0     2.300     10
            0  0  1  0     2.300     11
            1  0  0  0     1.240     12
            0  1  0  0     1.240     13
            0  0  1  0     1.240     14
            2  0  0  0     2.000     15
            1  1  0  0     2.000     16
            1  0  1  0     2.000     17
            0  2  0  0     2.000     18
            0  1  1  0     2.000     19
            0  0  2  0     2.000     20
            3  0  0  0     3.000     21
            2  1  0  0     3.000     22
            2  0  1  0     3.000     23
            1  2  0  0     3.000     24
            1  1  1  0     3.000     25
            1  0  2  0     3.000     26
            0  3  0  0     3.000     27
            0  2  1  0     3.000     28
            0  1  2  0     3.000     29
            0  0  3  0     3.000     30

 H                                    2
                                  ---------------------------------------------------------------------------
            0  0  0  0     0.690     31
            0  0  0  0     0.920     32
            0  0  0  0     1.580     33
            1  0  0  0     1.250     34
            0  1  0  0     1.250     35
            0  0  1  0     1.250     36
            2  0  0  0     2.500     37
            1  1  0  0     2.500     38
            1  0  1  0     2.500     39
            0  2  0  0     2.500     40
            0  1  1  0     2.500     41
            0  0  2  0     2.500     42

 C                                    3    4    5    6
                                  ---------------------------------------------------------------------------
            0  0  0  0     7.680     43   73  103  133
            0  0  0  0     5.000     44   74  104  134
            0  0  0  1     1.280     45   75  105  135
            0  0  0  1     2.100     46   76  106  136
            0  0  0  1     4.600     47   77  107  137
            1  0  0  0     0.820     48   78  108  138
            0  1  0  0     0.820     49   79  109  139
            0  0  1  0     0.820     50   80  110  140
            1  0  0  0     1.480     51   81  111  141
            0  1  0  0     1.480     52   82  112  142
            0  0  1  0     1.480     53   83  113  143
            1  0  0  0     2.940     54   84  114  144
            0  1  0  0     2.940     55   85  115  145
            0  0  1  0     2.940     56   86  116  146
            2  0  0  0     2.200     57   87  117  147
            1  1  0  0     2.200     58   88  118  148
            1  0  1  0     2.200     59   89  119  149
            0  2  0  0     2.200     60   90  120  150
            0  1  1  0     2.200     61   91  121  151
            0  0  2  0     2.200     62   92  122  152
            3  0  0  0     3.300     63   93  123  153
            2  1  0  0     3.300     64   94  124  154
            2  0  1  0     3.300     65   95  125  155
            1  2  0  0     3.300     66   96  126  156
            1  1  1  0     3.300     67   97  127  157
            1  0  2  0     3.300     68   98  128  158
            0  3  0  0     3.300     69   99  129  159
            0  2  1  0     3.300     70  100  130  160
            0  1  2  0     3.300     71  101  131  161
            0  0  3  0     3.300     72  102  132  162

 Cl                                   7
                                  ---------------------------------------------------------------------------
            0  0  0  0    20.300    163
            0  0  0  0    15.250    164
            0  0  0  1     6.250    165
            0  0  0  1     4.450    166
            1  0  0  0     8.850    167
            0  1  0  0     8.850    168
            0  0  1  0     8.850    169
            1  0  0  0     5.050    170
            0  1  0  0     5.050    171
            0  0  1  0     5.050    172
            0  0  0  2     3.450    173
            0  0  0  2     2.300    174
            0  0  0  2     1.600    175
            1  0  0  1     3.350    176
            0  1  0  1     3.350    177
            0  0  1  1     3.350    178
            1  0  0  1     2.050    179
            0  1  0  1     2.050    180
            0  0  1  1     2.050    181
            1  0  0  1     1.200    182
            0  1  0  1     1.200    183
            0  0  1  1     1.200    184
            2  0  0  0     2.000    185
            1  1  0  0     2.000    186
            1  0  1  0     2.000    187
            0  2  0  0     2.000    188
            0  1  1  0     2.000    189
            0  0  2  0     2.000    190
            3  0  0  0     2.000    191
            2  1  0  0     2.000    192
            2  0  1  0     2.000    193
            1  2  0  0     2.000    194
            1  1  1  0     2.000    195
            1  0  2  0     2.000    196
            0  3  0  0     2.000    197
            0  2  1  0     2.000    198
            0  1  2  0     2.000    199
            0  0  3  0     2.000    200

 H                                    8    9
                                  ---------------------------------------------------------------------------
            0  0  0  0     0.690    201  213
            0  0  0  0     0.920    202  214
            0  0  0  0     1.580    203  215
            1  0  0  0     1.250    204  216
            0  1  0  0     1.250    205  217
            0  0  1  0     1.250    206  218
            2  0  0  0     2.500    207  219
            1  1  0  0     2.500    208  220
            1  0  1  0     2.500    209  221
            0  2  0  0     2.500    210  222
            0  1  1  0     2.500    211  223
            0  0  2  0     2.500    212  224

 N                                   10   11
                                  ---------------------------------------------------------------------------
            0  0  0  0     8.740    225  255
            0  0  0  0     5.900    226  256
            0  0  0  1     5.150    227  257
            0  0  0  1     2.500    228  258
            0  0  0  1     1.500    229  259
            1  0  0  0     3.680    230  260
            0  1  0  0     3.680    231  261
            0  0  1  0     3.680    232  262
            1  0  0  0     1.880    233  263
            0  1  0  0     1.880    234  264
            0  0  1  0     1.880    235  265
            1  0  0  0     1.000    236  266
            0  1  0  0     1.000    237  267
            0  0  1  0     1.000    238  268
            2  0  0  0     2.200    239  269
            1  1  0  0     2.200    240  270
            1  0  1  0     2.200    241  271
            0  2  0  0     2.200    242  272
            0  1  1  0     2.200    243  273
            0  0  2  0     2.200    244  274
            3  0  0  0     3.300    245  275
            2  1  0  0     3.300    246  276
            2  0  1  0     3.300    247  277
            1  2  0  0     3.300    248  278
            1  1  1  0     3.300    249  279
            1  0  2  0     3.300    250  280
            0  3  0  0     3.300    251  281
            0  2  1  0     3.300    252  282
            0  1  2  0     3.300    253  283
            0  0  3  0     3.300    254  284

 Total number of charge fitting functions (nprimf)       845
 Total number of Cartesian basis functions (naos)        284
 Total number of Cartesian core functions  (ncos)          0

 ***************************************************************************************************



                                              ***********************
                                              *  T E C H N I C A L  *
                                              ***********************
  



 =============================================================
 P A R A L L E L I Z A T I O N  and  V E C T O R I Z A T I O N
 =============================================================
  
 Nr of parallel processes:                                1
 Maximum vector length in NumInt loops:                 128



 =====================
 S C F   U P D A T E S
 =====================
  
 Max. nr. of cycles:                               200
 Convergence criterion:                              0.0000010000
   secondary criterion:                              0.0010000000

 Mix parameter (when DIIS does not apply):           0.2000000000
 Mixed ADIIS+SDIIS will be used                  
    Max number of expansion vectors:                10
    Pure ADIIS when Max([F,P]) is above              0.1000000000
    Pure SDIIS when Max([F,P]) is below              0.0010000000
 Automatic ElectronSmearing (in case of problematic SCF convergence) disabled



 =================
 P R E C I S I O N  ***  (General: NumInt, NeglectFunctionTails, ...)  ***
 =================
  

 NumInt:           Target precision:                 4.0000000000
 -------           Initial precision:                4.0000000000
                   Min. precision (optimization):    4.0000000000

 Neglect Functions:          Basis functions:        0.1000000000E-05
 ------------------          Fit functions:          0.1000000000E-05



 ===========================
 L I N E A R   S C A L I N G
 ===========================
  

 Cut-off radii density fit:                        0.1000000000E-07
 Overlap cut-off criterion AO matrix elements:     0.1000000000E-05
 Cut-offs for Coulomb potential and fitted density:0.1000000000E-07
 Cut-off criterion for Coulomb multipole terms:    0.1000000000E-07
 Progressive Convergence parameter:                 0.000000000    
 ***************************************************************************************************



                                            ***************************
                                            *  C O M P U T A T I O N  *
                                            ***************************
  

 Number of elements of the density matrix on this node (used, total):     40470     40470



 ===========================================
 Numerical Integration : Fuzzy Cells (Becke)
 ===========================================
  
 Becke grid quality: NORMAL         
  
 Lebedev angular grid order:             min:  11 max:  23
 Nr. of radial points:                   min:  46 max:  67

 Total nr. of points:      76906
 Nr. of blocks:              601
 Block length:               128
 Nr. of dummy points:         22


 Test of Precision of the Numerical Integration Grid
 ===================================================

 Integral of the Total Core Density:                   0.00000000000000



 ========================
 Density Fitting (zlmFit)
 ========================
  
 ZlmFit Fit Quality: NORMAL         
  
 Max L-expansion:                        min:   6 max:   7
 Nr. of radial interpolation points:     min:  39 max:  60



 =====
 S C F  ***  ScaSCF  ***
 =====
  
 Initial density matrix is calculated as sum of fragments

 CYCLE    1
 SCF Error: norm([F,P])=      0.871364486912, max([F,P])=      0.541553249760
 orbitals (Q,E):
 ---------------
 A :25...44          ( 2.00    -0.2086)  ( 2.00    -0.2040)  ( 2.00    -0.1883)  ( 2.00    -0.1815)
                     ( 2.00    -0.1752)  ( 2.00    -0.1656)  ( 2.00    -0.1632)  ( 2.00    -0.1056)
                     ( 2.00    -0.1053)  ( 2.00    -0.0620)  ( 0.00     0.0448)  ( 0.00     0.0815)
                     ( 0.00     0.0954)  ( 0.00     0.1243)  ( 0.00     0.1353)  ( 0.00     0.1515)
                     ( 0.00     0.1564)  ( 0.00     0.1814)  ( 0.00     0.1854)  ( 0.00     0.2203)

 CYCLE    2
  SDIIS (wt  0.000):  0.2293  0.7707
 A-DIIS (wt  1.000):  0.9438  0.0562
  DIIS coefficients:  0.9438  0.0562
 SCF Error: norm([F,P])=      0.447887137263, max([F,P])=      0.110272261356
 orbitals (Q,E):
 ---------------
 A :25...35          ( 2.00    -0.2076)  ( 2.00    -0.1993)  ( 2.00    -0.1847)  ( 2.00    -0.1804)
                     ( 2.00    -0.1734)  ( 2.00    -0.1655)  ( 2.00    -0.1620)  ( 2.00    -0.1113)
                     ( 2.00    -0.1110)  ( 2.00    -0.0603)  ( 0.00     0.0447)

 CYCLE    3
  SDIIS (wt  0.000):  0.0712 -2.0000  2.9288
 A-DIIS (wt  1.000):  0.9317  0.0000  0.0683
  DIIS coefficients:  0.9317  0.0000  0.0683
 SCF Error: norm([F,P])=      0.347074166965, max([F,P])=      0.081925467839
 orbitals (Q,E):
 ---------------
 A :25...35          ( 2.00    -0.2076)  ( 2.00    -0.1989)  ( 2.00    -0.1843)  ( 2.00    -0.1803)
                     ( 2.00    -0.1730)  ( 2.00    -0.1652)  ( 2.00    -0.1617)  ( 2.00    -0.1119)
                     ( 2.00    -0.1116)  ( 2.00    -0.0597)  ( 0.00     0.0450)

 CYCLE    4
  SDIIS (wt  0.171): -2.0000  0.0000  3.0000
 A-DIIS (wt  0.829):  0.0000  0.0000  1.0000
  DIIS coefficients: -0.3421  0.0000  1.3421
 SCF Error: norm([F,P])=      0.347936339155, max([F,P])=      0.083066578542
 orbitals (Q,E):
 ---------------
 A :25...35          ( 2.00    -0.1955)  ( 2.00    -0.1946)  ( 2.00    -0.1921)  ( 2.00    -0.1857)
                     ( 2.00    -0.1611)  ( 2.00    -0.1591)  ( 2.00    -0.1251)  ( 2.00    -0.0856)
                     ( 2.00    -0.0683)  ( 2.00    -0.0198)  ( 0.00     0.0457)

 CYCLE    5
  SDIIS (wt  0.000): -0.4230 -1.7986  3.0000  0.2215
 A-DIIS (wt  1.000):  0.0000  0.0000  0.8106  0.1894
  DIIS coefficients:  0.0000  0.0000  0.8106  0.1894
 SCF Error: norm([F,P])=      0.993947744437, max([F,P])=      0.283125170387
 orbitals (Q,E):
 ---------------
 A :25...35          ( 2.00    -0.1858)  ( 2.00    -0.1801)  ( 2.00    -0.1739)  ( 2.00    -0.1733)
                     ( 2.00    -0.1536)  ( 2.00    -0.1518)  ( 2.00    -0.1324)  ( 2.00    -0.1225)
                     ( 2.00    -0.1075)  ( 2.00    -0.0238)  ( 0.00     0.0558)

 CYCLE    6
  SDIIS (wt  0.472): -0.0462  2.4597 -2.0000 -0.0124  0.5989
 A-DIIS (wt  0.528):  0.0000  0.0000  0.3612  0.0000  0.6388
  DIIS coefficients: -0.0218  1.1598 -0.7521 -0.0059  0.6200
 SCF Error: norm([F,P])=      0.249892893909, max([F,P])=      0.053319881766
 orbitals (Q,E):
 ---------------
 A :25...35          ( 2.00    -0.1812)  ( 2.00    -0.1727)  ( 2.00    -0.1663)  ( 2.00    -0.1553)
                     ( 2.00    -0.1525)  ( 2.00    -0.1518)  ( 2.00    -0.1513)  ( 2.00    -0.1482)
                     ( 2.00    -0.1326)  ( 2.00    -0.0359)  ( 0.00     0.0576)

 CYCLE    7
  SDIIS (wt  0.897): -0.4228 -2.0000  2.7024 -0.0032  0.2991  0.4246
 A-DIIS (wt  0.103):  0.0000  0.0000  0.0000  0.0000  0.0000  1.0000
  DIIS coefficients: -0.3794 -1.7950  2.4253 -0.0029  0.2684  0.4836
 SCF Error: norm([F,P])=      0.060749977778, max([F,P])=      0.011149542673
 orbitals (Q,E):
 ---------------
 A :25...35          ( 2.00    -0.1833)  ( 2.00    -0.1758)  ( 2.00    -0.1614)  ( 2.00    -0.1576)
                     ( 2.00    -0.1572)  ( 2.00    -0.1547)  ( 2.00    -0.1495)  ( 2.00    -0.1443)
                     ( 2.00    -0.1266)  ( 2.00    -0.0335)  ( 0.00     0.0562)

 CYCLE    8
  SDIIS (wt  0.903): -0.1552 -0.3396  0.6127 -0.0113  0.1807  0.3958  0.3168
 A-DIIS (wt  0.097):  0.0000  0.0000  0.0000  0.0000  0.0000  0.3811  0.6189
  DIIS coefficients: -0.1400 -0.3065  0.5530 -0.0102  0.1631  0.3944  0.3462
 SCF Error: norm([F,P])=      0.043151757785, max([F,P])=      0.010650173737
 orbitals (Q,E):
 ---------------
 A :25...35          ( 2.00    -0.1829)  ( 2.00    -0.1751)  ( 2.00    -0.1627)  ( 2.00    -0.1563)
                     ( 2.00    -0.1556)  ( 2.00    -0.1545)  ( 2.00    -0.1506)  ( 2.00    -0.1457)
                     ( 2.00    -0.1281)  ( 2.00    -0.0339)  ( 0.00     0.0561)

 CYCLE    9
  SDIIS (wt  0.988): -0.0978 -0.5754  0.7247 -0.0039  0.0605  0.2286  0.2655  0.3979
 A-DIIS (wt  0.012):  0.0000  0.0000  0.0000  0.0000  0.0000  0.0000  0.0700  0.9300
  DIIS coefficients: -0.0967 -0.5687  0.7162 -0.0039  0.0598  0.2259  0.2632  0.4041
 SCF Error: norm([F,P])=      0.012218814286, max([F,P])=      0.002160867067
 orbitals (Q,E):
 ---------------
 A :25...35          ( 2.00    -0.1828)  ( 2.00    -0.1750)  ( 2.00    -0.1629)  ( 2.00    -0.1557)
                     ( 2.00    -0.1546)  ( 2.00    -0.1539)  ( 2.00    -0.1506)  ( 2.00    -0.1459)
                     ( 2.00    -0.1286)  ( 2.00    -0.0342)  ( 0.00     0.0563)

 CYCLE   10
  SDIIS (wt  1.000): -0.0484 -0.3778  0.4481 -0.0005  0.0169  0.0919  0.1240  0.2423  0.5036
  DIIS coefficients: -0.0484 -0.3778  0.4481 -0.0005  0.0169  0.0919  0.1240  0.2423  0.5036
 SCF Error: norm([F,P])=      0.002234161271, max([F,P])=      0.000742669192
 orbitals (Q,E):
 ---------------
 A :25...35          ( 2.00    -0.1827)  ( 2.00    -0.1749)  ( 2.00    -0.1630)  ( 2.00    -0.1558)
                     ( 2.00    -0.1549)  ( 2.00    -0.1541)  ( 2.00    -0.1507)  ( 2.00    -0.1460)
                     ( 2.00    -0.1287)  ( 2.00    -0.0343)  ( 0.00     0.0564)

 CYCLE   11
  SDIIS (wt  1.000): -0.0111 -0.0838  0.0995 -0.0001  0.0031  0.0208  0.0370  0.0830  0.2512  0.6003
  DIIS coefficients: -0.0111 -0.0838  0.0995 -0.0001  0.0031  0.0208  0.0370  0.0830  0.2512  0.6003
 SCF Error: norm([F,P])=      0.000616239512, max([F,P])=      0.000095549304
 orbitals (Q,E):
 ---------------
 A :25...35          ( 2.00    -0.1828)  ( 2.00    -0.1750)  ( 2.00    -0.1629)  ( 2.00    -0.1558)
                     ( 2.00    -0.1548)  ( 2.00    -0.1541)  ( 2.00    -0.1507)  ( 2.00    -0.1460)
                     ( 2.00    -0.1286)  ( 2.00    -0.0342)  ( 0.00     0.0563)

 CYCLE   12
  SDIIS (wt  1.000):  0.0053 -0.0049 -0.0001  0.0008  0.0032  0.0095  0.0239  0.0864  0.2988  0.5771
  DIIS coefficients:  0.0053 -0.0049 -0.0001  0.0008  0.0032  0.0095  0.0239  0.0864  0.2988  0.5771
 SCF Error: norm([F,P])=      0.000159373555, max([F,P])=      0.000026299257
 orbitals (Q,E):
 ---------------
 A :25...35          ( 2.00    -0.1828)  ( 2.00    -0.1750)  ( 2.00    -0.1629)  ( 2.00    -0.1558)
                     ( 2.00    -0.1548)  ( 2.00    -0.1541)  ( 2.00    -0.1506)  ( 2.00    -0.1460)
                     ( 2.00    -0.1286)  ( 2.00    -0.0342)  ( 0.00     0.0563)

 CYCLE   13
  SDIIS (wt  1.000):  0.0001  0.0000  0.0001  0.0007  0.0029  0.0084  0.0317  0.1224  0.3212  0.5125
  DIIS coefficients:  0.0001  0.0000  0.0001  0.0007  0.0029  0.0084  0.0317  0.1224  0.3212  0.5125
 SCF Error: norm([F,P])=      0.000051220843, max([F,P])=      0.000008770422
 orbitals (Q,E):
 ---------------
 A :25...35          ( 2.00    -0.1828)  ( 2.00    -0.1750)  ( 2.00    -0.1629)  ( 2.00    -0.1558)
                     ( 2.00    -0.1548)  ( 2.00    -0.1541)  ( 2.00    -0.1506)  ( 2.00    -0.1460)
                     ( 2.00    -0.1286)  ( 2.00    -0.0342)  ( 0.00     0.0563)

 CYCLE   14
  SDIIS (wt  1.000):  0.0000 -0.0000  0.0001  0.0007  0.0023  0.0095  0.0423  0.1374  0.3059  0.5018
  DIIS coefficients:  0.0000 -0.0000  0.0001  0.0007  0.0023  0.0095  0.0423  0.1374  0.3059  0.5018
 SCF Error: norm([F,P])=      0.000018384632, max([F,P])=      0.000003493979
 orbitals (Q,E):
 ---------------
 A :25...35          ( 2.00    -0.1828)  ( 2.00    -0.1750)  ( 2.00    -0.1629)  ( 2.00    -0.1558)
                     ( 2.00    -0.1548)  ( 2.00    -0.1541)  ( 2.00    -0.1506)  ( 2.00    -0.1460)
                     ( 2.00    -0.1286)  ( 2.00    -0.0342)  ( 0.00     0.0563)

 CYCLE   15
  SDIIS (wt  1.000):  0.0000  0.0001  0.0002  0.0006  0.0028  0.0113  0.0411  0.1142  0.2814  0.5483
  DIIS coefficients:  0.0000  0.0001  0.0002  0.0006  0.0028  0.0113  0.0411  0.1142  0.2814  0.5483
 SCF Error: norm([F,P])=      0.000005862511, max([F,P])=      0.000000870133
 orbitals (Q,E):
 ---------------
 A :25...35          ( 2.00    -0.1828)  ( 2.00    -0.1750)  ( 2.00    -0.1629)  ( 2.00    -0.1558)
                     ( 2.00    -0.1548)  ( 2.00    -0.1541)  ( 2.00    -0.1506)  ( 2.00    -0.1460)
                     ( 2.00    -0.1286)  ( 2.00    -0.0342)  ( 0.00     0.0563)

 SCF CONVERGED

 CYCLE   16
 ***************************************************************************************************



                                                *******************
                                                *  R E S U L T S  *
                                                *******************
  
 *** Using FIT density in Focky
  SDIIS (wt  1.000): -0.0000  0.0000  0.0001  0.0007  0.0026  0.0102  0.0301  0.0891  0.2443  0.6229
  DIIS coefficients: -0.0000  0.0000  0.0001  0.0007  0.0026  0.0102  0.0301  0.0891  0.2443  0.6229
 SCF Error: norm([F,P])=      0.000001444824, max([F,P])=      0.000000210526

 Scaled ZORA Orbital Energies, per Irrep and Spin:
 =================================================
                        Occup              E (au)              E (eV)       Diff (eV) with prev. cycle
                        -----      --------------------        ------       --------------------------
 A
              25        2.000     -0.18277643010310E+00        -4.974               4.06E-06
              26        2.000     -0.17495997388801E+00        -4.761               4.01E-06
              27        2.000     -0.16292591460356E+00        -4.433               3.94E-06
              28        2.000     -0.15577972884624E+00        -4.239               2.23E-06
              29        2.000     -0.15484051863855E+00        -4.213               7.73E-07
              30        2.000     -0.15406598656101E+00        -4.192               2.13E-06
              31        2.000     -0.15064812794547E+00        -4.099               3.74E-06
              32        2.000     -0.14600002422191E+00        -3.973               3.87E-06
              33        2.000     -0.12861648963237E+00        -3.500               3.85E-06
              34        2.000     -0.34219550177048E-01        -0.931               5.67E-06
              35        0.000      0.56316706163907E-01         1.532
              36        0.000      0.98811006888377E-01         2.689
              37        0.000      0.11394887762427E+00         3.101
              38        0.000      0.14226921336390E+00         3.871
              39        0.000      0.14651751192111E+00         3.987
              40        0.000      0.16636030397244E+00         4.527
              41        0.000      0.17651003240519E+00         4.803
              42        0.000      0.18358872580734E+00         4.996
              43        0.000      0.20086790735939E+00         5.466
              44        0.000      0.21533975212932E+00         5.860
  
 HOMO :       34 A                -0.34219550177048E-01
 LUMO :       35 A                 0.56316706163907E-01
  


 All Electron Calculation, thus no Orbital Energies of the Core Orbitals are calculated


 Fit test: (difference of exact and fit density, squared integrated, result summed over spins)
         Sum-of-Fragments:                             0.00021400912831
         Orthogonalized Fragments:                     0.00021922227031
         SCF:                                          0.00022049331674



 ==========================
 Electron Density at Nuclei
 ==========================
  
 The electron density is calculated at points on a small sphere around the center of a nucleus.
 The printed electron density is the average electron density on these points.
 The radius of the sphere is the printed approximate finite nuclear radius.
 Note: ZORA-4 density is used, which includes small component density

         Atom        Nuclear Radius (Angstrom)             Electron Density (a.u.)
         ----        -------------------------             -----------------------
     1)   F                 0.0000361580                              450.47847
     2)   H                 0.0000181514                                0.40568
     3)   C                 0.0000320678                              127.09144
     4)   C                 0.0000320678                              126.96500
     5)   Cl                0.0000426624                             3312.24871
     6)   H                 0.0000181514                                0.51213
     7)   H                 0.0000181514                                0.50325
     8)   C                 0.0000320678                              127.46397
     9)   N                 0.0000333706                              206.88909
    10)   C                 0.0000320678                              127.43053
    11)   N                 0.0000333706                              206.74994



 =======================================
 M U L L I K E N   P O P U L A T I O N S
 =======================================
  
 The survey below gives for each atom:
 a) the total charge (Z minus electrons)
 b) the net spin polarization (nr of electrons spin-A minus spin-B)
 c) for each spin the atomic electron valence density (integrated) per L-value.

 Atom              Charge    Spin density          S         P         D         F
 ----              ------    ------------       ------    ------    ------    ------
 1 F              -0.5920                       3.9785    5.5933    0.0181    0.0021
 2 H               0.5261                       0.2952    0.1696    0.0091    0.0000
 3 C               0.2651                       3.0654    2.5730    0.0920    0.0044
 4 C              -0.1566                       3.0962    3.0042    0.0528    0.0035
 5 Cl             -0.2283                       5.9551   11.2002    0.0595    0.0136
 6 H              -0.1240                       1.0424    0.0755    0.0060    0.0000
 7 H              -0.1713                       1.0768    0.0885    0.0060    0.0000
 8 C               0.1292                       3.0898    2.7082    0.0640    0.0088
 9 N              -0.3048                       3.7074    3.5392    0.0538    0.0044
 10 C              0.0504                       3.0971    2.7666    0.0775    0.0084
 11 N             -0.3938                       3.6747    3.6635    0.0512    0.0043

 Populations of individual BAS functions
 ----------------------------------------
 1 F            0.5919  1.3836  1.0872  0.8432  0.0727  0.3737  0.3947  0.3961  0.9289  0.9590
                0.9622  0.4963  0.5419  0.5404  0.0083  0.0063  0.0057 -0.0021  0.0024 -0.0026
                0.0035  0.0046  0.0044 -0.0014  0.0007 -0.0019 -0.0033 -0.0004 -0.0008 -0.0034
 2 H           -0.5151  0.4255  0.3847  0.0746  0.0478  0.0472  0.0055  0.0023  0.0022 -0.0009
                0.0011 -0.0011
 3 C            0.5063  1.4837  0.2108  0.9027 -0.0381 -0.0629 -0.0668 -0.0706  0.7301  0.6948
                0.8249  0.1702  0.1563  0.1969  0.0096  0.0164  0.0278  0.0065  0.0180  0.0138
               -0.0003  0.0013  0.0005  0.0002  0.0007  0.0012 -0.0011 -0.0005  0.0009  0.0014
 4 C            0.5062  1.4816  0.2993  0.8394 -0.0303  0.3760 -0.0175 -0.0858  0.7510  0.7031
                0.7081  0.2193  0.1789  0.1710 -0.0086  0.0083  0.0092  0.0196  0.0120  0.0122
               -0.0051 -0.0034 -0.0021  0.0035  0.0003  0.0025  0.0047  0.0010 -0.0001  0.0021
 8 C            0.5049  1.4816  0.2750  0.8604 -0.0321  0.0072  0.0778  0.0606  0.6905  0.6581
                0.6556  0.2185  0.1585  0.1814  0.0365  0.0155  0.0145 -0.0158  0.0069  0.0064
                0.0078  0.0060  0.0067 -0.0047  0.0016  0.0004 -0.0054 -0.0028  0.0009 -0.0016
 10 C           0.5048  1.4815  0.2852  0.8568 -0.0313  0.1009  0.0016  0.1264  0.6458  0.7035
                0.6241  0.1555  0.2541  0.1546 -0.0209  0.0368  0.0003  0.0565  0.0228 -0.0180
               -0.0065 -0.0075 -0.0024  0.0110  0.0000 -0.0016  0.0172  0.0106 -0.0069 -0.0054
 5 Cl           0.5879  1.3675  1.7508  0.2171  0.7398  0.7362  0.7428  1.2547  1.2591  1.2510
                0.6178  1.0387  0.3753  0.2787  0.2385  0.3151  1.0622  0.9636  1.1460  0.4158
                0.2874  0.5093  0.0054  0.0206  0.0050  0.0252  0.0106 -0.0073 -0.0013  0.0009
                0.0031  0.0125  0.0018 -0.0068  0.0145  0.0104 -0.0107 -0.0109
 6 H            0.1063  0.6146  0.3215  0.0238  0.0259  0.0258  0.0003  0.0013  0.0010  0.0021
                0.0013  0.0001
 7 H            0.1319  0.6214  0.3235  0.0373  0.0251  0.0261  0.0020  0.0008  0.0013 -0.0033
                0.0012  0.0040
 9 N            0.5466  1.4325 -0.0260  1.0202  0.7341  0.2011  0.1527  0.1747  0.7998  0.6686
                0.7313  0.2612  0.2735  0.2763  0.0178  0.0126  0.0134 -0.0023  0.0056  0.0066
[...]
                                    3.90%    48 A               6.407  0.00     2 fB
                                    3.38%    37 A               1.224  0.00     2 fB
                                    2.38%    46 A               5.325  0.00     2 fB
                                    2.23%    36 A               0.230  0.00     2 fB
                                    2.00%    24 A              -9.264  2.00     2 fB
                                    1.84%    47 A               5.973  0.00     2 fB
                                    1.58%     7 A               6.419  0.00     1 fA
                                    1.37%    51 A               7.345  0.00     2 fB
                                    1.26%    55 A               9.380  0.00     2 fB
                                    1.25%    35 A               0.122  0.00     2 fB
       0.06791       244 A         14.72%    24 A              -9.264  2.00     2 fB
                                   12.11%    42 A               4.134  0.00     2 fB
                                   10.31%    21 A             -10.006  2.00     2 fB
                                    6.90%    30 A              -2.829  0.00     2 fB
                                    4.64%    44 A               4.612  0.00     2 fB
                                    4.61%    22 A              -9.705  2.00     2 fB
                                    4.53%    17 A             -14.359  2.00     2 fB
                                    4.37%    27 A              -8.422  2.00     2 fB
                                    4.20%    34 A              -0.338  0.00     2 fB
                                    2.95%    32 A              -1.497  0.00     2 fB
                                    2.70%    49 A               6.670  0.00     2 fB
                                    2.44%    38 A               1.653  0.00     2 fB
                                    2.43%    25 A              -8.958  2.00     2 fB
                                    2.35%    26 A              -8.838  2.00     2 fB
                                    2.13%    31 A              -1.675  0.00     2 fB
                                    1.85%    50 A               7.084  0.00     2 fB
                                    1.62%     7 A               6.419  0.00     1 fA
                                    1.54%     3 A              -6.063  2.00     1 fA
                                    1.41%    35 A               0.122  0.00     2 fB
                                    1.08%    33 A              -0.659  0.00     2 fB
      -0.06791         6 A         16.22%    24 A              -9.264  2.00     2 fB
                                   10.19%    42 A               4.134  0.00     2 fB
                                    7.97%    21 A             -10.006  2.00     2 fB
                                    6.64%    30 A              -2.829  0.00     2 fB
                                    5.80%    17 A             -14.359  2.00     2 fB
                                    4.22%     3 A              -6.063  2.00     1 fA
                                    4.20%    27 A              -8.422  2.00     2 fB
                                    4.19%    44 A               4.612  0.00     2 fB
                                    3.68%    22 A              -9.705  2.00     2 fB
                                    3.61%    34 A              -0.338  0.00     2 fB
                                    3.21%    26 A              -8.838  2.00     2 fB
                                    2.92%    32 A              -1.497  0.00     2 fB
                                    2.47%    49 A               6.670  0.00     2 fB
                                    2.41%    25 A              -8.958  2.00     2 fB
                                    2.12%    31 A              -1.675  0.00     2 fB
                                    1.96%    50 A               7.084  0.00     2 fB
                                    1.77%    38 A               1.653  0.00     2 fB
                                    1.43%    15 A             -20.542  2.00     2 fB
                                    1.20%    19 A             -12.831  2.00     2 fB
       0.06149       243 A         11.66%    12 A             -23.738  2.00     2 fB
                                    9.32%    21 A             -10.006  2.00     2 fB
                                    7.85%    36 A               0.230  0.00     2 fB
                                    6.46%    20 A             -11.709  2.00     2 fB
                                    5.87%    15 A             -20.542  2.00     2 fB
                                    5.85%     8 A              11.277  0.00     1 fA
                                    5.82%    24 A              -9.264  2.00     2 fB
                                    3.93%    39 A               2.605  0.00     2 fB
                                    3.18%    41 A               3.549  0.00     2 fB
                                    3.16%    48 A               6.407  0.00     2 fB
                                    3.13%    18 A             -14.030  2.00     2 fB
                                    2.97%    34 A              -0.338  0.00     2 fB
                                    2.93%    16 A             -18.250  2.00     2 fB
                                    2.51%    42 A               4.134  0.00     2 fB
                                    2.45%    26 A              -8.838  2.00     2 fB
                                    1.95%    30 A              -2.829  0.00     2 fB
                                    1.94%    22 A              -9.705  2.00     2 fB
                                    1.87%    47 A               5.973  0.00     2 fB
                                    1.75%    35 A               0.122  0.00     2 fB
                                    1.56%     3 A              -6.063  2.00     1 fA
                                    1.29%    53 A               8.053  0.00     2 fB
                                    1.13%    19 A             -12.831  2.00     2 fB
                                    1.03%    45 A               4.939  0.00     2 fB
      -0.05578         7 A         12.81%     3 A              -6.063  2.00     1 fA
                                   12.39%    24 A              -9.264  2.00     2 fB
                                   12.22%    19 A             -12.831  2.00     2 fB
                                    8.48%    44 A               4.612  0.00     2 fB
                                    6.30%    36 A               0.230  0.00     2 fB
                                    5.18%    33 A              -0.659  0.00     2 fB
                                    4.18%    38 A               1.653  0.00     2 fB
                                    3.74%    51 A               7.345  0.00     2 fB
                                    3.26%    30 A              -2.829  0.00     2 fB
                                    3.10%    17 A             -14.359  2.00     2 fB
                                    2.45%    37 A               1.224  0.00     2 fB
                                    2.32%    26 A              -8.838  2.00     2 fB
                                    2.17%    16 A             -18.250  2.00     2 fB
                                    2.00%     7 A               6.419  0.00     1 fA
                                    1.95%    45 A               4.939  0.00     2 fB
                                    1.90%    20 A             -11.709  2.00     2 fB
                                    1.70%    25 A              -8.958  2.00     2 fB
                                    1.40%    32 A              -1.497  0.00     2 fB
                                    1.34%    27 A              -8.422  2.00     2 fB
                                    1.30%    54 A               8.540  0.00     2 fB
                                    1.18%     4 A              -2.549  2.00     1 fA
                                    1.00%    53 A               8.053  0.00     2 fB
       0.05462       242 A         14.58%     3 A              -6.063  2.00     1 fA
                                   11.23%    38 A               1.653  0.00     2 fB
                                    7.16%    44 A               4.612  0.00     2 fB
                                    6.77%    12 A             -23.738  2.00     2 fB
                                    6.57%    24 A              -9.264  2.00     2 fB
                                    5.77%    33 A              -0.659  0.00     2 fB
                                    5.50%    19 A             -12.831  2.00     2 fB
                                    5.03%    32 A              -1.497  0.00     2 fB
                                   -3.93%     6 A               4.285  1.00     1 fA
                                    3.60%    25 A              -8.958  2.00     2 fB
                                    3.43%    37 A               1.224  0.00     2 fB
                                    3.37%    51 A               7.345  0.00     2 fB
                                    2.44%    18 A             -14.030  2.00     2 fB
                                    2.42%    15 A             -20.542  2.00     2 fB
                                    2.24%     7 A               6.419  0.00     1 fA
                                    1.87%    30 A              -2.829  0.00     2 fB
                                    1.87%    21 A             -10.006  2.00     2 fB
                                    1.65%    26 A              -8.838  2.00     2 fB
                                    1.55%    45 A               4.939  0.00     2 fB
                                    1.47%    23 A              -9.432  2.00     2 fB
                                    1.22%    34 A              -0.338  0.00     2 fB
                                    1.19%    27 A              -8.422  2.00     2 fB
                                    1.07%    39 A               2.605  0.00     2 fB
      -0.05158         8 A         20.72%     3 A              -6.063  2.00     1 fA
                                    9.99%    32 A              -1.497  0.00     2 fB
                                    8.48%    36 A               0.230  0.00     2 fB
                                    7.95%    25 A              -8.958  2.00     2 fB
                                    5.60%    27 A              -8.422  2.00     2 fB
                                    4.20%    19 A             -12.831  2.00     2 fB
                                    3.62%     8 A              11.277  0.00     1 fA
                                    3.29%    23 A              -9.432  2.00     2 fB
                                    3.20%    34 A              -0.338  0.00     2 fB
                                    2.74%    18 A             -14.030  2.00     2 fB
                                    2.62%    39 A               2.605  0.00     2 fB
                                    2.60%    42 A               4.134  0.00     2 fB
                                    2.19%    38 A               1.653  0.00     2 fB
                                    2.07%     4 A              -2.549  2.00     1 fA
                                    1.73%    26 A              -8.838  2.00     2 fB
                                    1.65%    17 A             -14.359  2.00     2 fB
                                    1.54%    47 A               5.973  0.00     2 fB
                                    1.51%     6 A               4.285  1.00     1 fA
                                    1.30%    49 A               6.670  0.00     2 fB
                                    1.23%    24 A              -9.264  2.00     2 fB
                                    1.08%    44 A               4.612  0.00     2 fB
 Mulliken charges used for AMS results%charges...


    =====================
     CALCULATION RESULTS
    =====================

Energy (hartree)            -0.21145727


--------------
Atomic charges
--------------
  Index   Atom    Charge
      1      F   -0.5920
      2      H    0.5261
      3      C    0.2651
      4      C   -0.1566
      5     Cl   -0.2283
      6      H   -0.1240
      7      H   -0.1713
      8      C    0.1292
      9      N   -0.3048
     10      C    0.0504
     11      N   -0.3938


Dipole moment vector    (Debye):     6.27053278    2.18569755   -3.47655565
              magnitude (Debye):     7.49555164


-----------------------
Molecular orbitals info
-----------------------
n orbitals:              249
n spin:                    1

Note: only printing virtual orbitals with
      energy smaller than HOMO + 100. eV

HOMO (eV):              -0.9312
LUMO (eV):               1.5325
HOMO-LUMO gap (eV):      2.4636

   Index   Energy (eV)    Occupation
     161       98.3545         0.000       
     160       96.9879         0.000       
     159       96.0064         0.000       
     158       93.3545         0.000       
     157       90.5014         0.000       
     156       89.2944         0.000       
     155       86.1495         0.000       
     154       85.3312         0.000       
     153       84.0500         0.000       
     152       83.4235         0.000       
     151       82.1045         0.000       
     150       80.5580         0.000       
     149       80.0383         0.000       
     148       79.5483         0.000       
     147       78.0014         0.000       
     146       76.4933         0.000       
     145       75.6566         0.000       
     144       75.2303         0.000       
     143       73.6744         0.000       
     142       73.5985         0.000       
     141       71.8257         0.000       
     140       71.1298         0.000       
     139       70.2550         0.000       
     138       69.3193         0.000       
     137       68.5353         0.000       
     136       67.4448         0.000       
     135       67.0291         0.000       
     134       66.1285         0.000       
     133       65.1559         0.000       
     132       64.9857         0.000       
     131       64.4479         0.000       
     130       61.8413         0.000       
     129       60.9822         0.000       
     128       60.2838         0.000       
     127       57.9953         0.000       
     126       57.3946         0.000       
     125       56.3448         0.000       
     124       55.0799         0.000       
     123       54.7270         0.000       
     122       53.6971         0.000       
     121       52.4267         0.000       
     120       51.6920         0.000       
     119       50.5247         0.000       
     118       49.4325         0.000       
     117       48.8457         0.000       
     116       48.1580         0.000       
     115       47.2375         0.000       
     114       46.5571         0.000       
     113       44.8345         0.000       
     112       44.0531         0.000       
     111       43.0241         0.000       
     110       42.0674         0.000       
     109       41.1738         0.000       
     108       40.8546         0.000       
     107       40.0196         0.000       
     106       39.3963         0.000       
     105       38.9631         0.000       
     104       38.4200         0.000       
     103       38.0567         0.000       
     102       37.2613         0.000       
     101       37.2241         0.000       
     100       36.8886         0.000       
      99       36.4427         0.000       
      98       36.2044         0.000       
      97       35.9674         0.000       
      96       35.3549         0.000       
      95       35.0524         0.000       
      94       34.2108         0.000       
      93       34.0184         0.000       
      92       33.3350         0.000       
      91       32.7027         0.000       
      90       31.9746         0.000       
      89       30.9308         0.000       
      88       30.7074         0.000       
      87       29.2888         0.000       
      86       28.8421         0.000       
      85       27.8422         0.000       
      84       27.5173         0.000       
      83       26.5365         0.000       
      82       25.8990         0.000       
      81       24.3310         0.000       
      80       23.7163         0.000       
      79       22.7190         0.000       
      78       22.4484         0.000       
      77       21.4365         0.000       
      76       21.2274         0.000       
      75       20.8436         0.000       
      74       20.0764         0.000       
      73       19.8495         0.000       
      72       19.2550         0.000       
      71       17.9316         0.000       
      70       17.2741         0.000       
      69       17.0201         0.000       
      68       16.1636         0.000       
      67       15.8544         0.000       
      66       15.5993         0.000       
      65       14.7760         0.000       
      64       14.3948         0.000       
      63       14.0059         0.000       
      62       13.6177         0.000       
      61       13.2813         0.000       
      60       12.6241         0.000       
      59       12.3346         0.000       
      58       12.0766         0.000       
      57       11.3419         0.000       
      56       10.9561         0.000       
      55       10.8765         0.000       
      54       10.7628         0.000       
      53       10.1242         0.000       
      52        9.9279         0.000       
      51        9.1744         0.000       
      50        8.7727         0.000       
      49        8.5441         0.000       
      48        8.2957         0.000       
      47        8.1669         0.000       
      46        7.7218         0.000       
      45        6.7662         0.000       
      44        5.8597         0.000       
      43        5.4659         0.000       
      42        4.9957         0.000       
      41        4.8031         0.000       
      40        4.5269         0.000       
      39        3.9869         0.000       
      38        3.8713         0.000       
      37        3.1007         0.000       
      36        2.6888         0.000       
      35        1.5325         0.000 < LUMO
      34       -0.9312         2.000 < HOMO
      33       -3.4998         2.000       
      32       -3.9729         2.000       
      31       -4.0993         2.000       
      30       -4.1923         2.000       
      29       -4.2134         2.000       
      28       -4.2390         2.000       
      27       -4.4334         2.000       
      26       -4.7609         2.000       
      25       -4.9736         2.000       
      24       -5.4709         2.000       
      23       -6.6594         2.000       
      22       -7.6353         2.000       
      21       -7.7679         2.000       
      20       -8.9154         2.000       
      19       -9.3752         2.000       
      18      -13.0579         2.000       
      17      -15.3608         2.000       
      16      -17.6544         2.000       
      15      -18.3825         2.000       
      14      -19.2224         2.000       
      13      -24.0342         2.000       
      12     -187.1266         2.000       
      11     -187.1299         2.000       
      10     -187.4189         2.000       
       9     -248.1739         2.000       
       8     -265.9423         2.000       
       7     -266.5910         2.000       
       6     -267.8057         2.000       
       5     -269.3230         2.000       
       4     -376.8104         2.000       
       3     -378.2723         2.000       
       2     -655.6516         2.000       
       1    -2747.4306         2.000       

AMS application finished. Exiting.
NORMAL TERMINATION
     Total cpu time:      55.08
  Total system time:       0.29
 Total elapsed time:      55.54
NORMAL TERMINATION
