
 *******************************************************************************
 *                                                                             *
 *  --------------------------------                                           *
 *   Amsterdam Modeling Suite (AMS)              2026.103                      *
 *  --------------------------------                                           *
 *                                               r260501 2026-05-01 873454b5   *
 *                                                                             *
 *                                                                             *
 *                              =================                              *
 *                              |               |                              *
 *                              |     A M S     |                              *
 *                              |               |                              *
 *                              =================                              *
 *                                                                             *
 *                                                                             *
 *   Online information and documentation:  https://www.scm.com/support/       *
 *   E-mail:  support@scm.com   info@scm.com                                   *
 *                                                                             *
 *   Scientific publications using AMS results must be properly referenced     *
 *   See the User Manuals (or the web site) for recommended citations          *
 *   The terms and conditions of the End User License Agreement apply to       *
 *   the use of AMS, https://www.scm.com/license-terms/                        *
 *                                                                             *
 **********************  x86_64_linux_intel / intelmpi  ************************
 
 Licensed to: Jong-June Jeon / University of Seoul 2026-06-02 13:44:15
 SCM User ID: u30731
  
 AMS 2026.103  RunTime: Jun03-2026 18:28:46  ShM Nodes: 1  Procs: 1

 AMS jobname: c5_fragB_opt
 AMS jobid  : 2024875050

 Start   directory: /gpfs/home1/yeseo1ee/projects/eda-asm-prediction/ADF_800/adf_outputs/batch_003/qmrxn20_e2_A_C_A_C_B_B/
 Results directory: /gpfs/home1/yeseo1ee/projects/eda-asm-prediction/ADF_800/adf_outputs/batch_003/qmrxn20_e2_A_C_A_C_B_B/c5_fragB_opt.results/
 Scratch directory: /tmp/amstmp_c5_fragB_opt_kid0.2024875050/

 RNG seed: -898608250 -1611349601 538545672 922484403 1553141409 1364875466 1329033916 1245095013



                      ************************************************************************
                      *  ADF 2026.103  RunTime: Jun03-2026 18:28:46  ShM Nodes: 1  Procs: 1  *
                      ************************************************************************
  

       ***************************
       *  GEOMETRY OPTIMIZATION  *
       ***************************

Optimization Method                    Quasi Newton
Optimization Coordinates               Delocalized Coordinates
Optimize lattice                       F
 
 ------------------------------------------------------
 Convergence criteria (Hartree,Angstrom)
 ------------------------------------------------------
 Maximum gradient               0.000100000000
 Maximum rms gradient           0.000066666667
 Maximum step allowed           0.010000000000
 Maximum rms step allowed       0.006666666667
 Maximum energy change allowe   0.000090000000
 Maximum stress energy allowe   0.000500000000
 
Initial model Hessian                  Automatic Hessian
 
------------------------------------
Quasi-Newton Optimizer Parameters
------------------------------------
Hessian Update Method                  BFGS
Maximum number of steps                  200
First GDIIS cycle                          0
Maximum GDIIS vectors                      0
Trust radius (bohr)                        0.200000
Trust radius varies                        T
Constraints converged at all steps         T
Use projector                              T
 
 Rigid motions settings for: old optimizer
 Atomic rotations (x,y,z):     T T T
 Atomic translations (x,y,z):  T T T
 Tolerance:                  1.000000000000000E-006

--------
Geometry
--------
Formula: C4H2ClN2
Atoms
  Index Symbol   x (angstrom)   y (angstrom)   z (angstrom)
      1      C     0.20938968     0.26423592    -0.30607928
      2      C    -0.08818283    -0.27719319     1.08202292
      3     Cl     1.19569856     1.78152232    -0.22088967
      4      H     0.80313846    -0.41472225    -0.93156443
      5      H     0.61196443     0.12211277     1.81607700
      6      C    -1.00159984     0.58930245    -1.07327359
      7      N    -1.96153844     0.80518785    -1.71516016
      8      C    -0.10160141    -1.69813427     1.08472947
      9      N    -0.16442401    -2.88010919     1.06930433

Total System Charge              0.00000


----------------
ADF Engine Input
----------------
 
   Basis
     Type TZ2P
     Core None
   End
   XC
     GGA BLYP
     Dispersion GRIMME3 BJDAMP
   End
   Symmetry NOSYM
   NumericalQuality Normal
   Unrestricted No
   SCF
     Iterations 200
     Converge 1.0e-6
   End
   Save TAPE21
 

 Title: *** (NO TITLE) ***

Challenging geometry: could not add a dihedral for atom    7
Challenging geometry: could not add a dihedral for atom    9
 Using automatic Hessian for delocalized coordinates.
 *** GO1_GOStep1 ***

 Integrated fractional orbital density (NFOD):         1.000

 Energy gradients wrt nuclear displacements
 ==========================================

     Atom      Cartesian (a.u./angstrom)
                 X         Y         Z
 ----------------------------------------
     1 C     0.032529 -0.027221  0.021005
     2 C    -0.073673  0.066817  0.025376
     3 Cl   -0.015365 -0.014310 -0.005587
     4 H    -0.001288  0.008541 -0.008109
     5 H     0.023559 -0.015117 -0.019859
     6 C     0.050076 -0.002052  0.031169
     7 N    -0.042878  0.008375 -0.030443
     8 C     0.030219  0.003115 -0.013059
     9 N    -0.003181 -0.028145 -0.000492
 ----------------------------------------
 
----------------------------------------------------------------------
Geometry Convergence after Step   1       (Hartree/Angstrom,Angstrom)
----------------------------------------------------------------------
current energy                               -2.03221460 Hartree
energy change                      -2.03221460     0.00009000    F
constrained gradient max            0.07367352     0.00010000    F
constrained gradient rms            0.02904743     0.00006667    F
gradient max                        0.07367270
gradient rms                        0.02904743
cart. step max                      0.05329700     0.01000000    F
cart. step rms                      0.02870555     0.00666667    F
 

--------
Geometry
--------
Formula: C4H2ClN2
Atoms
  Index Symbol   x (angstrom)   y (angstrom)   z (angstrom)
      1      C     0.22821770     0.28738550    -0.33915219
      2      C    -0.03751845    -0.30808134     1.03925605
      3     Cl     1.19608104     1.82422401    -0.20669385
      4      H     0.83408923    -0.37614963    -0.97062702
      5      H     0.58999453     0.09909577     1.83462857
      6      C    -1.00779290     0.58443987    -1.08146316
      7      N    -1.97165576     0.78092286    -1.68704199
      8      C    -0.11346708    -1.71559268     1.09365887
      9      N    -0.21510373    -2.88404194     1.12260133

Total System Charge              0.00000

 *** GO1_GOStep2 ***

 Integrated fractional orbital density (NFOD):         1.000

 Energy gradients wrt nuclear displacements
 ==========================================

     Atom      Cartesian (a.u./angstrom)
                 X         Y         Z
 ----------------------------------------
     1 C     0.026176 -0.013656  0.005117
     2 C    -0.060994  0.048184  0.012537
     3 Cl   -0.007222 -0.006353 -0.003153
     4 H    -0.001025  0.005358 -0.005173
     5 H     0.021227 -0.015514 -0.008046
     6 C    -0.020659  0.008510 -0.013115
     7 N     0.021603 -0.005204  0.011889
     8 C     0.020872 -0.034347  0.001143
     9 N     0.000023  0.013023 -0.001200
 ----------------------------------------

 dE(predicted):    -0.75293E-02, dE(actual):    -0.71289E-02, Trust radius:    0.400000, all in a.u.
 
----------------------------------------------------------------------
Geometry Convergence after Step   2       (Hartree/Angstrom,Angstrom)
----------------------------------------------------------------------
current energy                               -2.03934353 Hartree
energy change                      -0.00712893     0.00009000    F
constrained gradient max            0.06099328     0.00010000    F
constrained gradient rms            0.02028104     0.00006667    F
gradient max                        0.06099115
gradient rms                        0.02028104
cart. step max                      0.10404945     0.01000000    F
cart. step rms                      0.04305436     0.00666667    F
 

--------
Geometry
--------
Formula: C4H2ClN2
Atoms
  Index Symbol   x (angstrom)   y (angstrom)   z (angstrom)
      1      C     0.26787829     0.31116501    -0.37100829
      2      C     0.06653100    -0.34607298     0.98843667
      3     Cl     1.19908791     1.87751419    -0.19217975
      4      H     0.89061792    -0.33256019    -1.00807309
      5      H     0.54181834     0.10545705     1.86135651
      6      C    -1.00408708     0.55687393    -1.07001914
      7      N    -2.01224566     0.72552932    -1.63801382
      8      C    -0.13198426    -1.72082902     1.08150530
      9      N    -0.31477185    -2.88487490     1.15316220

Total System Charge              0.00000

 *** GO1_GOStep3 ***

 Integrated fractional orbital density (NFOD):         1.000

 Energy gradients wrt nuclear displacements
 ==========================================

     Atom      Cartesian (a.u./angstrom)
                 X         Y         Z
 ----------------------------------------
     1 C     0.013995  0.001160 -0.007481
     2 C    -0.034079  0.023221 -0.001535
     3 Cl    0.000448  0.000675  0.000371
     4 H    -0.000181 -0.000033  0.000554
     5 H     0.014046 -0.011602  0.003335
     6 C     0.022763 -0.005876  0.014429
     7 N    -0.027009  0.004922 -0.016962
     8 C     0.010943 -0.005485  0.007435
     9 N    -0.000926 -0.006981 -0.000147
 ----------------------------------------

 dE(predicted):    -0.65717E-02, dE(actual):    -0.70213E-02, Trust radius:    0.800000, all in a.u.
 
----------------------------------------------------------------------
Geometry Convergence after Step   3       (Hartree/Angstrom,Angstrom)
----------------------------------------------------------------------
current energy                               -2.04636481 Hartree
energy change                      -0.00702128     0.00009000    F
constrained gradient max            0.03401427     0.00010000    F
constrained gradient rms            0.01270307     0.00006667    F
gradient max                        0.03401374
gradient rms                        0.01270307
cart. step max                      0.10800825     0.01000000    F
cart. step rms                      0.04917704     0.00666667    F
 

--------
Geometry
--------
Formula: C4H2ClN2
Atoms
  Index Symbol   x (angstrom)   y (angstrom)   z (angstrom)
      1      C     0.31221372     0.30879844    -0.38632541
      2      C     0.17453925    -0.37672298     0.95530452
      3     Cl     1.19368174     1.90751833    -0.19546563
      4      H     0.94299376    -0.30863823    -1.04281325
      5      H     0.44606559     0.15055077     1.86707744
      6      C    -0.98885972     0.52151720    -1.03104996
      7      N    -2.02189782     0.65157295    -1.53842084
      8      C    -0.13479555    -1.70951012     1.04656577
      9      N    -0.42109636    -2.85288396     1.13029394

Total System Charge              0.00000

 *** GO1_GOStep4 ***

 Integrated fractional orbital density (NFOD):         1.000

 Energy gradients wrt nuclear displacements
 ==========================================

     Atom      Cartesian (a.u./angstrom)
                 X         Y         Z
 ----------------------------------------
     1 C     0.000158  0.002359 -0.006941
     2 C    -0.011563 -0.004760 -0.004276
     3 Cl    0.001061  0.002441  0.001708
     4 H     0.001736 -0.003070  0.003029
     5 H     0.004842 -0.006100  0.003460
     6 C    -0.013761  0.000035 -0.004347
     7 N     0.012592 -0.001798  0.004940
     8 C     0.007546  0.015539  0.001544
     9 N    -0.002611 -0.004645  0.000884
 ----------------------------------------

 dE(predicted):    -0.31615E-02, dE(actual):    -0.38777E-02, Trust radius:    0.800000, all in a.u.
 
----------------------------------------------------------------------
Geometry Convergence after Step   4       (Hartree/Angstrom,Angstrom)
----------------------------------------------------------------------
current energy                               -2.05024252 Hartree
energy change                      -0.00387771     0.00009000    F
constrained gradient max            0.01546904     0.00010000    F
constrained gradient rms            0.00625622     0.00006667    F
gradient max                        0.01547017
gradient rms                        0.00625622
cart. step max                      0.11925583     0.01000000    F
cart. step rms                      0.03049822     0.00666667    F
 

--------
Geometry
--------
Formula: C4H2ClN2
Atoms
  Index Symbol   x (angstrom)   y (angstrom)   z (angstrom)
      1      C     0.32604268     0.29257063    -0.38822294
      2      C     0.19979382    -0.38790309     0.95303185
      3     Cl     1.22243468     1.88439648    -0.21791583
      4      H     0.93966980    -0.31909979    -1.06545978
      5      H     0.32680976     0.19588281     1.85978480
      6      C    -0.97951177     0.52922236    -1.01161443
      7      N    -2.02505067     0.68260527    -1.49538307
      8      C    -0.12157207    -1.71991797     1.04339117
      9      N    -0.38577161    -2.86555429     1.12755481

Total System Charge              0.00000

 *** GO1_GOStep5 ***

 Integrated fractional orbital density (NFOD):         1.000

 Energy gradients wrt nuclear displacements
 ==========================================

     Atom      Cartesian (a.u./angstrom)
                 X         Y         Z
 ----------------------------------------
     1 C    -0.004248  0.002080 -0.001201
     2 C     0.000959 -0.006470  0.000004
     3 Cl   -0.001016  0.000299 -0.000226
     4 H     0.002431 -0.000745  0.000909
     5 H     0.001661 -0.002562  0.000580
     6 C     0.002741 -0.001442  0.001398
     7 N    -0.000913  0.000014 -0.001309
     8 C    -0.002783  0.004710 -0.000901
     9 N     0.001167  0.004117  0.000745
 ----------------------------------------

 dE(predicted):    -0.71018E-03, dE(actual):    -0.97459E-03, Trust radius:    0.800000, all in a.u.
 
----------------------------------------------------------------------
Geometry Convergence after Step   5       (Hartree/Angstrom,Angstrom)
----------------------------------------------------------------------
current energy                               -2.05121711 Hartree
energy change                      -0.00097459     0.00009000    F
constrained gradient max            0.00652233     0.00010000    F
constrained gradient rms            0.00234296     0.00006667    F
gradient max                        0.00652183
gradient rms                        0.00234296
cart. step max                      0.21157053     0.01000000    F
cart. step rms                      0.06147546     0.00666667    F
 

--------
Geometry
--------
Formula: C4H2ClN2
Atoms
  Index Symbol   x (angstrom)   y (angstrom)   z (angstrom)
      1      C     0.32629645     0.26784543    -0.39307169
      2      C     0.18418378    -0.38799794     0.95548584
      3     Cl     1.29898743     1.81662568    -0.24975442
      4      H     0.89705198    -0.36662179    -1.08486265
      5      H     0.11523922     0.25135766     1.82954441
      6      C    -0.97570331     0.57122040    -0.99498983
      7      N    -2.02373139     0.78365368    -1.45198879
      8      C    -0.06357550    -1.74168113     1.05430864
      9      N    -0.25590407    -2.90219958     1.14049507

Total System Charge              0.00000

 *** GO1_GOStep6 ***

 Integrated fractional orbital density (NFOD):         1.000

 Energy gradients wrt nuclear displacements
 ==========================================

     Atom      Cartesian (a.u./angstrom)
                 X         Y         Z
 ----------------------------------------
     1 C    -0.004757  0.004208  0.003526
     2 C     0.010225 -0.000666  0.006236
     3 Cl   -0.003752 -0.003025 -0.001757
     4 H     0.002928  0.001403 -0.001596
     5 H    -0.000156  0.000384 -0.002644
     6 C     0.004112 -0.002617 -0.000686
     7 N    -0.001885  0.000884 -0.001038
     8 C    -0.007109 -0.000169 -0.003302
     9 N     0.000394 -0.000401  0.001261
 ----------------------------------------

 dE(predicted):    -0.59624E-03, dE(actual):    -0.10068E-02, Trust radius:    0.800000, all in a.u.
 
----------------------------------------------------------------------
Geometry Convergence after Step   6       (Hartree/Angstrom,Angstrom)
----------------------------------------------------------------------
current energy                               -2.05222389 Hartree
energy change                      -0.00100678     0.00009000    F
constrained gradient max            0.01023995     0.00010000    F
constrained gradient rms            0.00352789     0.00006667    F
gradient max                        0.01024033
gradient rms                        0.00352789
cart. step max                      0.21222009     0.01000000    F
cart. step rms                      0.06973149     0.00666667    F
 

--------
Geometry
--------
Formula: C4H2ClN2
Atoms
  Index Symbol   x (angstrom)   y (angstrom)   z (angstrom)
      1      C     0.31330981     0.24352834    -0.39951169
      2      C     0.13799219    -0.38523679     0.95514718
      3     Cl     1.38470519     1.72844981    -0.27074929
      4      H     0.83291762    -0.42304861    -1.09876606
      5      H    -0.09698087     0.27852726     1.78108693
      6      C    -0.97413830     0.63159180    -0.98562978
      7      N    -2.01621570     0.90847431    -1.42385560
      8      C     0.00451001    -1.75932375     1.07572968
      9      N    -0.08325535    -2.93075995     1.17171522

Total System Charge              0.00000

 *** GO1_GOStep7 ***

 Integrated fractional orbital density (NFOD):         1.000

 Energy gradients wrt nuclear displacements
 ==========================================

     Atom      Cartesian (a.u./angstrom)
                 X         Y         Z
 ----------------------------------------
     1 C    -0.001381  0.006576  0.004767
     2 C     0.013956  0.005876  0.011764
     3 Cl   -0.006360 -0.006183 -0.002478
     4 H     0.002457  0.002507 -0.003069
     5 H    -0.001383  0.002632 -0.004663
     6 C     0.006055 -0.003176 -0.001404
     7 N    -0.004925  0.001604 -0.001509
     8 C    -0.008951 -0.011426 -0.004004
     9 N     0.000532  0.001588  0.000596
 ----------------------------------------

 dE(predicted):    -0.14271E-02, dE(actual):    -0.10981E-02, Trust radius:    0.800000, all in a.u.
 
----------------------------------------------------------------------
Geometry Convergence after Step   7       (Hartree/Angstrom,Angstrom)
----------------------------------------------------------------------
current energy                               -2.05332201 Hartree
energy change                      -0.00109813     0.00009000    F
constrained gradient max            0.01392984     0.00010000    F
constrained gradient rms            0.00570989     0.00006667    F
gradient max                        0.01393006
gradient rms                        0.00570989
cart. step max                      0.21228984     0.01000000    F
cart. step rms                      0.07880700     0.00666667    F
 

--------
Geometry
--------
Formula: C4H2ClN2
Atoms
  Index Symbol   x (angstrom)   y (angstrom)   z (angstrom)
      1      C     0.28378636     0.21599899    -0.41161171
      2      C     0.06024742    -0.39159181     0.94281433
      3     Cl     1.46609540     1.61685485    -0.27001736
      4      H     0.74836075    -0.47919751    -1.11809393
      5      H    -0.29538013     0.27820133     1.72068983
      6      C    -0.97437452     0.70727541    -0.98712775
      7      N    -1.99719102     1.06448428    -1.41330288
      8      C     0.08226585    -1.77434723     1.10956454
      9      N     0.12903448    -2.94547589     1.23225152

Total System Charge              0.00000

 *** GO1_GOStep8 ***

 Integrated fractional orbital density (NFOD):         1.000

 Energy gradients wrt nuclear displacements
 ==========================================

     Atom      Cartesian (a.u./angstrom)
                 X         Y         Z
 ----------------------------------------
     1 C     0.006928  0.008111  0.003362
     2 C     0.010007  0.014867  0.014094
     3 Cl   -0.008937 -0.009310 -0.002210
     4 H     0.001240  0.003669 -0.003505
     5 H    -0.001742  0.005272 -0.005430
     6 C     0.005293 -0.003315 -0.001627
     7 N    -0.006828  0.002184 -0.001967
     8 C    -0.006983 -0.021581 -0.002791
     9 N     0.001023  0.000102  0.000073
 ----------------------------------------

 dE(predicted):    -0.20219E-02, dE(actual):    -0.13310E-02, Trust radius:    0.800000, all in a.u.
 
----------------------------------------------------------------------
Geometry Convergence after Step   8       (Hartree/Angstrom,Angstrom)
----------------------------------------------------------------------
current energy                               -2.05465305 Hartree
energy change                      -0.00133104     0.00009000    F
constrained gradient max            0.02162572     0.00010000    F
constrained gradient rms            0.00751332     0.00006667    F
gradient max                        0.02162665
gradient rms                        0.00751332
cart. step max                      0.21484070     0.01000000    F
cart. step rms                      0.08117355     0.00666667    F
 

--------
Geometry
--------
Formula: C4H2ClN2
Atoms
  Index Symbol   x (angstrom)   y (angstrom)   z (angstrom)
      1      C     0.24175197     0.18509768    -0.43049983
      2      C    -0.03168199    -0.41598470     0.91346837
      3     Cl     1.53054633     1.49530292    -0.24974759
      4      H     0.65506674    -0.53024324    -1.14489718
      5      H    -0.46906237     0.24378298     1.65920585
      6      C    -0.97418285     0.78591297    -0.99485045
      7      N    -1.96464681     1.23330516    -1.41023613
      8      C     0.17117839    -1.77598926     1.14805630
      9      N     0.34387519    -2.92898209     1.31466726

Total System Charge              0.00000

 *** GO1_GOStep9 ***

 Integrated fractional orbital density (NFOD):         1.000

 Energy gradients wrt nuclear displacements
 ==========================================

     Atom      Cartesian (a.u./angstrom)
                 X         Y         Z
 ----------------------------------------
     1 C     0.015273  0.008044  0.000016
     2 C     0.000996  0.015923  0.011277
     3 Cl   -0.011086 -0.009740 -0.001608
     4 H    -0.000403  0.003760 -0.002121
     5 H    -0.001479  0.006601 -0.004502
     6 C     0.001208 -0.002462 -0.001578
     7 N    -0.004739  0.002238 -0.001459
     8 C     0.000845 -0.025882  0.000874
     9 N    -0.000615  0.001518 -0.000899
 ----------------------------------------

 dE(predicted):    -0.19602E-02, dE(actual):    -0.15458E-02, Trust radius:    0.800000, all in a.u.
 
----------------------------------------------------------------------
Geometry Convergence after Step   9       (Hartree/Angstrom,Angstrom)
----------------------------------------------------------------------
current energy                               -2.05619882 Hartree
energy change                      -0.00154576     0.00009000    F
constrained gradient max            0.02590044     0.00010000    F
constrained gradient rms            0.00793293     0.00006667    F
gradient max                        0.02590123
gradient rms                        0.00793293
cart. step max                      0.21655702     0.01000000    F
cart. step rms                      0.08264202     0.00666667    F
 

--------
Geometry
--------
Formula: C4H2ClN2
Atoms
  Index Symbol   x (angstrom)   y (angstrom)   z (angstrom)
      1      C     0.19341052     0.15306902    -0.45020643
      2      C    -0.12071874    -0.45261356     0.87590448
      3     Cl     1.59096046     1.36025399    -0.22510602
      4      H     0.55842276    -0.57560504    -1.17513326
      5      H    -0.63663490     0.17864814     1.59606400
      6      C    -0.96900171     0.86342096    -0.99829017
      7      N    -1.92115043     1.39484778    -1.39998982
      8      C     0.24712443    -1.75773862     1.18144305
      9      N     0.56043221    -2.87208027     1.40048077

Total System Charge              0.00000

 *** GO1_GOStep10 ***

 Integrated fractional orbital density (NFOD):         1.000

 Energy gradients wrt nuclear displacements
 ==========================================

     Atom      Cartesian (a.u./angstrom)
                 X         Y         Z
 ----------------------------------------
     1 C     0.019156  0.006187 -0.001302
     2 C    -0.003052  0.007754  0.006114
     3 Cl   -0.010695 -0.008284 -0.000820
     4 H    -0.001625  0.002676 -0.000005
     5 H    -0.001195  0.005515 -0.003269
     6 C    -0.004983  0.001119 -0.002815
     7 N    -0.000607 -0.000094  0.000147
     8 C     0.002623 -0.013905  0.002567
     9 N     0.000377 -0.000969 -0.000616
 ----------------------------------------

 dE(predicted):    -0.19631E-02, dE(actual):    -0.13777E-02, Trust radius:    0.800000, all in a.u.
 
----------------------------------------------------------------------
Geometry Convergence after Step  10       (Hartree/Angstrom,Angstrom)
----------------------------------------------------------------------
current energy                               -2.05757647 Hartree
energy change                      -0.00137765     0.00009000    F
constrained gradient max            0.01911525     0.00010000    F
constrained gradient rms            0.00606157     0.00006667    F
gradient max                        0.01911512
gradient rms                        0.00606157
cart. step max                      0.21285720     0.01000000    F
cart. step rms                      0.08954981     0.00666667    F
 

--------
Geometry
--------
Formula: C4H2ClN2
Atoms
  Index Symbol   x (angstrom)   y (angstrom)   z (angstrom)
      1      C     0.13595240     0.11774623    -0.47008492
      2      C    -0.20562833    -0.50296312     0.83290596
      3     Cl     1.64522085     1.21078064    -0.20889049
      4      H     0.45543848    -0.61468680    -1.21259210
      5      H    -0.81540978     0.06940895     1.52798459
      6      C    -0.95606616     0.94002058    -0.99432865
      7      N    -1.85788633     1.56335838    -1.37913052
      8      C     0.32793406    -1.71966250     1.21331541
      9      N     0.77328941    -2.77179994     1.49598731

Total System Charge              0.00000

 *** GO1_GOStep11 ***

 Integrated fractional orbital density (NFOD):         1.000

 Energy gradients wrt nuclear displacements
 ==========================================

     Atom      Cartesian (a.u./angstrom)
                 X         Y         Z
 ----------------------------------------
     1 C     0.015987  0.004024 -0.001139
     2 C    -0.001199 -0.005190  0.001568
     3 Cl   -0.008342 -0.006631 -0.000295
     4 H    -0.002348  0.000924  0.001748
     5 H    -0.000484  0.002477 -0.001259
     6 C    -0.002630  0.002138 -0.002068
     7 N    -0.001352  0.000097  0.000433
     8 C     0.001878  0.000194  0.003161
     9 N    -0.001510  0.001967 -0.002149
 ----------------------------------------

 dE(predicted):    -0.71422E-03, dE(actual):    -0.76521E-03, Trust radius:    1.000000, all in a.u.
 
----------------------------------------------------------------------
Geometry Convergence after Step  11       (Hartree/Angstrom,Angstrom)
----------------------------------------------------------------------
current energy                               -2.05834168 Hartree
energy change                      -0.00076521     0.00009000    F
constrained gradient max            0.01595014     0.00010000    F
constrained gradient rms            0.00420209     0.00006667    F
gradient max                        0.01594974
gradient rms                        0.00420209
cart. step max                      0.21430465     0.01000000    F
cart. step rms                      0.10591545     0.00666667    F
 

--------
Geometry
--------
Formula: C4H2ClN2
Atoms
  Index Symbol   x (angstrom)   y (angstrom)   z (angstrom)
      1      C     0.07394326    -0.02904167    -0.56389819
      2      C    -0.15121097    -0.49043857     0.82817070
      3     Cl     1.45313560     1.22087102    -0.27000269
      4      H     0.48888999    -0.72659954    -1.29424768
      5      H    -0.98728856    -0.05999109     1.37432453
      6      C    -0.90290828     0.99162167    -0.94309039
      7      N    -1.71173357     1.77766302    -1.21998874
      8      C     0.39158060    -1.68115020     1.27449162
      9      N     0.84843652    -2.71073222     1.61940743

Total System Charge              0.00000

 *** GO1_GOStep12 ***

 Integrated fractional orbital density (NFOD):         1.000

 Energy gradients wrt nuclear displacements
 ==========================================

     Atom      Cartesian (a.u./angstrom)
                 X         Y         Z
 ----------------------------------------
     1 C     0.002212 -0.050262 -0.044630
     2 C     0.031770  0.039257  0.024297
     3 Cl   -0.064735 -0.018949 -0.002949
     4 H     0.016505 -0.000439  0.002804
     5 H    -0.010083 -0.009292 -0.006159
     6 C     0.029971  0.039002  0.031346
     7 N     0.001958 -0.002476 -0.001142
     8 C    -0.007374  0.007816 -0.002471
     9 N    -0.000223 -0.004657 -0.001095
 ----------------------------------------

 dE(predicted):    -0.30384E-03, dE(actual):     0.16679E-01, Trust radius:    0.213895, all in a.u.
 
----------------------------------------------------------------------
Geometry Convergence after Step  12       (Hartree/Angstrom,Angstrom)
----------------------------------------------------------------------
current energy                               -2.04166311 Hartree
energy change                       0.01667857     0.00009000    F
constrained gradient max            0.06476016     0.00010000    F
constrained gradient rms            0.02455994     0.00006667    F
gradient max                        0.06475247
gradient rms                        0.02455994
cart. step max                      0.09990692     0.01000000    F
cart. step rms                      0.03200248     0.00666667    F
 

--------
Geometry
--------
Formula: C4H2ClN2
Atoms
  Index Symbol   x (angstrom)   y (angstrom)   z (angstrom)
      1      C     0.08083206     0.02081415    -0.52864182
      2      C    -0.16522509    -0.49282605     0.83851972
      3     Cl     1.55304252     1.20924227    -0.26987928
      4      H     0.46431467    -0.69467452    -1.25857248
      5      H    -0.97981705    -0.05831226     1.41176873
      6      C    -0.92597598     0.98710665    -0.96035439
      7      N    -1.75499855     1.73591903    -1.27614654
      8      C     0.38228768    -1.69225552     1.25840241
      9      N     0.84838433    -2.72281133     1.59007024

Total System Charge              0.00000

 *** GO1_GOStep13 ***

 Integrated fractional orbital density (NFOD):         1.000

 Energy gradients wrt nuclear displacements
 ==========================================

     Atom      Cartesian (a.u./angstrom)
                 X         Y         Z
 ----------------------------------------
     1 C    -0.003486 -0.033810 -0.032244
     2 C     0.025517  0.025459  0.022740
     3 Cl   -0.033148 -0.008212 -0.000504
     4 H     0.011668 -0.001596  0.002930
     5 H    -0.008495 -0.008051 -0.006179
     6 C     0.012268  0.027855  0.015576
     7 N     0.001764 -0.001977 -0.000086
     8 C    -0.007780  0.006898 -0.002470
     9 N     0.001691 -0.006567  0.000237
 ----------------------------------------

 dE(predicted):    -0.10068E-01, dE(actual):    -0.97563E-02, Trust radius:    0.427790, all in a.u.
 
----------------------------------------------------------------------
Geometry Convergence after Step  13       (Hartree/Angstrom,Angstrom)
----------------------------------------------------------------------
current energy                               -2.05141940 Hartree
energy change                      -0.00975630     0.00009000    F
constrained gradient max            0.03376559     0.00010000    F
constrained gradient rms            0.01591224     0.00006667    F
gradient max                        0.03376636
gradient rms                        0.01591224
cart. step max                      0.08245709     0.01000000    F
cart. step rms                      0.04148990     0.00666667    F
 

--------
Geometry
--------
Formula: C4H2ClN2
Atoms
  Index Symbol   x (angstrom)   y (angstrom)   z (angstrom)
      1      C     0.08446792     0.06762667    -0.49618843
      2      C    -0.22085237    -0.52342747     0.81879002
      3     Cl     1.63549961     1.20135809    -0.22995460
      4      H     0.43508317    -0.64452606    -1.24476590
      5      H    -0.90793412    -0.01511235     1.49154241
      6      C    -0.94521769     0.96943714    -0.98359940
      7      N    -1.79142054     1.67642411    -1.34731352
      8      C     0.36134260    -1.71263943     1.23049269
      9      N     0.85187602    -2.72693829     1.56616331

Total System Charge              0.00000

 *** GO1_GOStep14 ***

 Integrated fractional orbital density (NFOD):         1.000

 Energy gradients wrt nuclear displacements
 ==========================================

     Atom      Cartesian (a.u./angstrom)
                 X         Y         Z
 ----------------------------------------
     1 C    -0.001239 -0.009885 -0.014157
     2 C     0.002818  0.007047  0.006116
     3 Cl   -0.006430  0.000612 -0.000065
     4 H     0.002028 -0.000324  0.000780
     5 H    -0.003052 -0.002601  0.000723
     6 C     0.004410  0.006216  0.004188
     7 N     0.001683 -0.000407  0.001082
     8 C     0.001021 -0.003552  0.002912
     9 N    -0.001239  0.002894 -0.001580
 ----------------------------------------

 dE(predicted):    -0.64722E-02, dE(actual):    -0.66356E-02, Trust radius:    0.855579, all in a.u.
 
----------------------------------------------------------------------
Geometry Convergence after Step  14       (Hartree/Angstrom,Angstrom)
----------------------------------------------------------------------
current energy                               -2.05805502 Hartree
energy change                      -0.00663561     0.00009000    F
constrained gradient max            0.01414410     0.00010000    F
constrained gradient rms            0.00460280     0.00006667    F
gradient max                        0.01414358
gradient rms                        0.00460280
cart. step max                      0.20398699     0.01000000    F
cart. step rms                      0.08834471     0.00666667    F
 

--------
Geometry
--------
Formula: C4H2ClN2
Atoms
  Index Symbol   x (angstrom)   y (angstrom)   z (angstrom)
      1      C     0.12374063     0.11844975    -0.46143313
      2      C    -0.16691829    -0.48477009     0.84912605
      3     Cl     1.62510576     1.32632720    -0.22219477
      4      H     0.51109716    -0.59645987    -1.19152034
      5      H    -0.70394713     0.08952028     1.59982962
      6      C    -0.96781096     0.91000347    -1.00153105
      7      N    -1.87184811     1.50546066    -1.42113876
      8      C     0.29016900    -1.74805433     1.18397265
      9      N     0.66325654    -2.82827466     1.47005631

Total System Charge              0.00000

 *** GO1_GOStep15 ***

 Integrated fractional orbital density (NFOD):         1.000

 Energy gradients wrt nuclear displacements
 ==========================================

     Atom      Cartesian (a.u./angstrom)
                 X         Y         Z
 ----------------------------------------
     1 C    -0.004621 -0.002191 -0.002840
     2 C    -0.001432  0.001998  0.000774
     3 Cl    0.002084  0.003354 -0.000400
     4 H     0.002121 -0.000949 -0.000345
     5 H     0.001157 -0.001734  0.001945
     6 C    -0.000794  0.002790 -0.000669
     7 N     0.003105 -0.003036  0.001265
     8 C    -0.002441  0.002704 -0.001317
     9 N     0.000821 -0.002935  0.001588
 ----------------------------------------

 dE(predicted):    -0.83821E-03, dE(actual):    -0.47127E-03, Trust radius:    0.855579, all in a.u.
 
----------------------------------------------------------------------
Geometry Convergence after Step  15       (Hartree/Angstrom,Angstrom)
----------------------------------------------------------------------
current energy                               -2.05852629 Hartree
energy change                      -0.00047127     0.00009000    F
constrained gradient max            0.00466069     0.00010000    F
constrained gradient rms            0.00216072     0.00006667    F
gradient max                        0.00466098
gradient rms                        0.00216072
cart. step max                      0.13133207     0.01000000    F
cart. step rms                      0.05204738     0.00666667    F
 

--------
Geometry
--------
Formula: C4H2ClN2
Atoms
  Index Symbol   x (angstrom)   y (angstrom)   z (angstrom)
      1      C     0.11697768     0.11510012    -0.46230303
      2      C    -0.19948636    -0.50183191     0.83028681
      3     Cl     1.68472124     1.22130593    -0.21122615
      4      H     0.44487895    -0.60352321    -1.21267847
      5      H    -0.83527920     0.04631645     1.52042847
      6      C    -0.96047398     0.94147431    -0.98649795
      7      N    -1.85725940     1.56571049    -1.38609545
      8      C     0.33688242    -1.72265149     1.20314365
      9      N     0.77188324    -2.76969828     1.51010871

Total System Charge              0.00000

 *** GO1_GOStep16 ***

 Integrated fractional orbital density (NFOD):         1.000

 Energy gradients wrt nuclear displacements
 ==========================================

     Atom      Cartesian (a.u./angstrom)
                 X         Y         Z
 ----------------------------------------
     1 C     0.001920 -0.000094  0.003814
     2 C     0.001246 -0.001210 -0.000893
     3 Cl    0.003730  0.000467  0.001097
     4 H    -0.004363  0.001622  0.001885
     5 H    -0.001112  0.001729 -0.003030
     6 C     0.003451 -0.005943  0.000160
     7 N    -0.005282  0.002855 -0.001744
     8 C     0.004354 -0.006253  0.000798
     9 N    -0.003945  0.006826 -0.002087
 ----------------------------------------

 dE(predicted):    -0.32506E-03, dE(actual):    -0.24370E-04, Trust radius:    0.097332, all in a.u.
 
----------------------------------------------------------------------
Geometry Convergence after Step  16       (Hartree/Angstrom,Angstrom)
----------------------------------------------------------------------
current energy                               -2.05855066 Hartree
energy change                      -0.00002437     0.00009000    T
constrained gradient max            0.00678680     0.00010000    F
constrained gradient rms            0.00326251     0.00006667    F
gradient max                        0.00678608
gradient rms                        0.00326251
cart. step max                      0.03009080     0.01000000    F
cart. step rms                      0.01229654     0.00666667    F
 

--------
Geometry
--------
Formula: C4H2ClN2
Atoms
  Index Symbol   x (angstrom)   y (angstrom)   z (angstrom)
      1      C     0.10125778     0.10174004    -0.47054925
      2      C    -0.20768062    -0.50999208     0.82943644
      3     Cl     1.65463044     1.22935904    -0.21007676
      4      H     0.45314311    -0.61238767    -1.21716414
      5      H    -0.81800197     0.04262017     1.53951421
      6      C    -0.96205164     0.94483739    -0.99496018
      7      N    -1.83838376     1.59388225    -1.39559897
      8      C     0.33392062    -1.72824774     1.20655580
      9      N     0.78601064    -2.76960899     1.51800944

Total System Charge              0.00000

 *** GO1_GOStep17 ***

 Integrated fractional orbital density (NFOD):         1.000

 Energy gradients wrt nuclear displacements
 ==========================================

     Atom      Cartesian (a.u./angstrom)
                 X         Y         Z
 ----------------------------------------
     1 C    -0.000744 -0.001143 -0.000361
     2 C     0.000105  0.000456 -0.000022
     3 Cl    0.000645  0.000271  0.000246
     4 H    -0.000106  0.000238  0.000370
     5 H    -0.000131  0.000311 -0.000213
     6 C     0.000221  0.000103 -0.001058
     7 N    -0.000020  0.000159  0.000442
     8 C    -0.000452  0.000967  0.000297
     9 N     0.000482 -0.001363  0.000298
 ----------------------------------------

 dE(predicted):    -0.19282E-03, dE(actual):    -0.16870E-03, Trust radius:    0.194663, all in a.u.
 
----------------------------------------------------------------------
Geometry Convergence after Step  17       (Hartree/Angstrom,Angstrom)
----------------------------------------------------------------------
current energy                               -2.05871936 Hartree
energy change                      -0.00016870     0.00009000    F
constrained gradient max            0.00139266     0.00010000    F
constrained gradient rms            0.00053606     0.00006667    F
gradient max                        0.00139289
gradient rms                        0.00053606
cart. step max                      0.01316159     0.01000000    F
cart. step rms                      0.00562336     0.00666667    T
 

--------
Geometry
--------
Formula: C4H2ClN2
Atoms
  Index Symbol   x (angstrom)   y (angstrom)   z (angstrom)
      1      C     0.10445805     0.10477216    -0.46832965
      2      C    -0.20348704    -0.50721780     0.83199145
      3     Cl     1.65283041     1.23869172    -0.21178430
      4      H     0.45841671    -0.60979937    -1.21405024
      5      H    -0.80652867     0.04778347     1.54637264
      6      C    -0.96248861     0.94174686    -0.99471533
      7      N    -1.84275002     1.58271441    -1.39999886
      8      C     0.32954472    -1.73053757     1.20362576
      9      N     0.77284905    -2.77595146     1.51205513

Total System Charge              0.00000

 *** GO1_GOStep18 ***

 Integrated fractional orbital density (NFOD):         1.000

 Energy gradients wrt nuclear displacements
 ==========================================

     Atom      Cartesian (a.u./angstrom)
                 X         Y         Z
 ----------------------------------------
     1 C    -0.000865 -0.000822  0.000019
     2 C    -0.000056  0.000133  0.000111
     3 Cl    0.000701  0.000407  0.000042
     4 H     0.000100  0.000031  0.000094
     5 H     0.000018  0.000180 -0.000064
     6 C     0.000690  0.000075 -0.000605
     7 N    -0.000299  0.000011  0.000131
     8 C     0.000178 -0.000652  0.000453
     9 N    -0.000468  0.000638 -0.000181
 ----------------------------------------

 dE(predicted):    -0.44867E-05, dE(actual):    -0.14634E-04, Trust radius:    0.194663, all in a.u.
 
----------------------------------------------------------------------
Geometry Convergence after Step  18       (Hartree/Angstrom,Angstrom)
----------------------------------------------------------------------
current energy                               -2.05873399 Hartree
energy change                      -0.00001463     0.00009000    T
constrained gradient max            0.00089139     0.00010000    F
constrained gradient rms            0.00039813     0.00006667    F
gradient max                        0.00089148
gradient rms                        0.00039813
cart. step max                      0.00395676     0.01000000    T
cart. step rms                      0.00168508     0.00666667    T
 

--------
Geometry
--------
Formula: C4H2ClN2
Atoms
  Index Symbol   x (angstrom)   y (angstrom)   z (angstrom)
      1      C     0.10377820     0.10463635    -0.46825020
      2      C    -0.20482476    -0.50822435     0.83144522
      3     Cl     1.65335101     1.23577562    -0.21207065
      4      H     0.45612830    -0.61001776    -1.21480727
      5      H    -0.80995552     0.04549351     1.54505012
      6      C    -0.96247130     0.94282178    -0.99410317
      7      N    -1.84088384     1.58577436    -1.40010605
      8      C     0.33091669    -1.73002311     1.20406460
      9      N     0.77680582    -2.77403399     1.51394400

Total System Charge              0.00000

 *** GO1_GOStep19 ***

 Integrated fractional orbital density (NFOD):         1.000

 Energy gradients wrt nuclear displacements
 ==========================================

     Atom      Cartesian (a.u./angstrom)
                 X         Y         Z
 ----------------------------------------
     1 C    -0.000736 -0.000569  0.000293
     2 C    -0.000079  0.000112 -0.000031
     3 Cl    0.000601  0.000291 -0.000003
     4 H     0.000053 -0.000011  0.000008
     5 H     0.000009  0.000188 -0.000102
     6 C     0.000507 -0.000039 -0.000575
     7 N    -0.000115 -0.000002  0.000154
     8 C     0.000044 -0.000229  0.000299
     9 N    -0.000285  0.000260 -0.000043
 ----------------------------------------
 
----------------------------------------------------------------------
Geometry Convergence after Step  19       (Hartree/Angstrom,Angstrom)
----------------------------------------------------------------------
current energy                               -2.05873430 Hartree
energy change                      -0.00000030     0.00009000    T
constrained gradient max            0.00076035     0.00010000    F
constrained gradient rms            0.00028711     0.00006667    F
gradient max                        0.00076038
gradient rms                        0.00028711
cart. step max                      0.00554766     0.01000000    T
cart. step rms                      0.00244298     0.00666667    T
 

--------
Geometry
--------
Formula: C4H2ClN2
Atoms
  Index Symbol   x (angstrom)   y (angstrom)   z (angstrom)
      1      C     0.10283643     0.10487527    -0.46805858
      2      C    -0.20639740    -0.50983082     0.83086975
      3     Cl     1.65299751     1.23138325    -0.21236469
      4      H     0.45242507    -0.61010810    -1.21591668
      5      H    -0.81383505     0.04176747     1.54418859
      6      C    -0.96274583     0.94488454    -0.99279104
      7      N    -1.83780525     1.59027560    -1.40206445
      8      C     0.33301564    -1.72960171     1.20438668
      9      N     0.78235348    -2.77144308     1.51691700

Total System Charge              0.00000

 *** GO1_GOStep20 ***

 Integrated fractional orbital density (NFOD):         1.000

 Energy gradients wrt nuclear displacements
 ==========================================

     Atom      Cartesian (a.u./angstrom)
                 X         Y         Z
 ----------------------------------------
     1 C    -0.000323 -0.000106  0.000461
     2 C    -0.000038  0.000040 -0.000181
     3 Cl    0.000186 -0.000047 -0.000088
     4 H     0.000069 -0.000138 -0.000101
     5 H    -0.000002  0.000151 -0.000077
     6 C     0.000295 -0.000111 -0.000216
     7 N     0.000013  0.000050 -0.000019
     8 C    -0.000059  0.000135  0.000097
     9 N    -0.000140  0.000026  0.000125
 ----------------------------------------
 
----------------------------------------------------------------------
Geometry Convergence after Step  20       (Hartree/Angstrom,Angstrom)
----------------------------------------------------------------------
current energy                               -2.05873489 Hartree
energy change                      -0.00000059     0.00009000    T
constrained gradient max            0.00047495     0.00010000    F
constrained gradient rms            0.00014197     0.00006667    F
gradient max                        0.00047502
gradient rms                        0.00014197
cart. step max                      0.00151232     0.01000000    T
cart. step rms                      0.00067407     0.00666667    T
 

--------
Geometry
--------
Formula: C4H2ClN2
Atoms
  Index Symbol   x (angstrom)   y (angstrom)   z (angstrom)
      1      C     0.10323236     0.10544899    -0.46781718
      2      C    -0.20567861    -0.50956492     0.83132179
      3     Cl     1.65218755     1.23230141    -0.21247293
      4      H     0.45250617    -0.60979037    -1.21555644
      5      H    -0.81232273     0.04206398     1.54530393
      6      C    -0.96312843     0.94458324    -0.99263255
      7      N    -1.83777003     1.58951407    -1.40344535
      8      C     0.33263695    -1.73004593     1.20398660
      9      N     0.78118137    -2.77230804     1.51647873

Total System Charge              0.00000

 *** GO1_GOStep21 ***

 Integrated fractional orbital density (NFOD):         1.000

 Energy gradients wrt nuclear displacements
 ==========================================

     Atom      Cartesian (a.u./angstrom)
                 X         Y         Z
 ----------------------------------------
     1 C    -0.000122 -0.000003  0.000292
     2 C    -0.000004  0.000073 -0.000109
     3 Cl    0.000090 -0.000105 -0.000088
     4 H     0.000043 -0.000138 -0.000063
     5 H    -0.000003  0.000117 -0.000043
     6 C     0.000099 -0.000061 -0.000132
     7 N     0.000128 -0.000003 -0.000062
     8 C    -0.000155  0.000217  0.000003
     9 N    -0.000076 -0.000098  0.000203
 ----------------------------------------

 dE(predicted):    -0.29691E-06, dE(actual):    -0.12395E-05, Trust radius:    0.194663, all in a.u.
 
----------------------------------------------------------------------
Geometry Convergence after Step  21       (Hartree/Angstrom,Angstrom)
----------------------------------------------------------------------
current energy                               -2.05873613 Hartree
energy change                      -0.00000124     0.00009000    T
constrained gradient max            0.00030648     0.00010000    F
constrained gradient rms            0.00009128     0.00006667    F
gradient max                        0.00030651
gradient rms                        0.00009128
cart. step max                      0.00089988     0.01000000    T
cart. step rms                      0.00034009     0.00666667    T
 

--------
Geometry
--------
Formula: C4H2ClN2
Atoms
  Index Symbol   x (angstrom)   y (angstrom)   z (angstrom)
      1      C     0.10339577     0.10561641    -0.46784607
      2      C    -0.20536122    -0.50945467     0.83151474
      3     Cl     1.65176984     1.23270918    -0.21225107
      4      H     0.45258803    -0.60971683    -1.21542797
      5      H    -0.81142285     0.04239776     1.54583437
      6      C    -0.96325890     0.94452205    -0.99265463
      7      N    -1.83792377     1.58908072    -1.40405086
      8      C     0.33248166    -1.73024539     1.20387878
      9      N     0.78057604    -2.77270682     1.51616930

Total System Charge              0.00000

 *** GO1_GOStep22 ***

 Integrated fractional orbital density (NFOD):         1.000

 Energy gradients wrt nuclear displacements
 ==========================================

     Atom      Cartesian (a.u./angstrom)
                 X         Y         Z
 ----------------------------------------
     1 C     0.000011 -0.000035  0.000056
     2 C    -0.000003  0.000057 -0.000021
     3 Cl    0.000046 -0.000119 -0.000065
     4 H     0.000012 -0.000105  0.000011
     5 H    -0.000005  0.000114 -0.000018
     6 C     0.000092 -0.000020 -0.000064
     7 N     0.000076  0.000019 -0.000122
     8 C    -0.000075  0.000011  0.000067
     9 N    -0.000154  0.000079  0.000154
 ----------------------------------------
 
---------------------------------------------------------
Geometry Convergence after Step  22       ** CONVERGED **
---------------------------------------------------------
current energy                               -2.05873652 Hartree
energy change                      -0.00000039     0.00009000    T
constrained gradient max            0.00007022     0.00010000    T
constrained gradient rms            0.00002263     0.00006667    T
gradient max                        0.00007022
gradient rms                        0.00002263
cart. step max                      0.00020604     0.01000000    T
cart. step rms                      0.00010234     0.00666667    T
 
Geometry optimization converged

Optimized geometry:

--------
Geometry
--------
Formula: C4H2ClN2
Atoms
  Index Symbol   x (angstrom)   y (angstrom)   z (angstrom)
      1      C     0.10339577     0.10561641    -0.46784607
      2      C    -0.20536122    -0.50945467     0.83151474
      3     Cl     1.65176984     1.23270918    -0.21225107
      4      H     0.45258803    -0.60971683    -1.21542797
      5      H    -0.81142285     0.04239776     1.54583437
      6      C    -0.96325890     0.94452205    -0.99265463
      7      N    -1.83792377     1.58908072    -1.40405086
      8      C     0.33248166    -1.73024539     1.20387878
      9      N     0.78057604    -2.77270682     1.51616930

Total System Charge              0.00000

Performing a single point calculation on the final geometry ...

 *** adf ***



 ===========================
 A T T A C H E D   F I L E S
 ===========================
  
 Restart/tmp/amstmp_c5_fragB_opt_kid0.2024875050/GO1_GOStep22.rkf*** GO1_GOStep22 ***



 ===============================
 M O D E L   P A R A M E T E R S
 ===============================
  
 DENSITY FUNCTIONAL POTENTIAL (scf)
    LDA:                               Exchange only                           == Not Default ==
    Gradient Corrections:              Becke88 LYP                             == Not Default ==

 SPIN  (restricted / unrestr.)
    Molecule:                          Restricted                               
    Fragments:                         Restricted                               

 OTHER ASPECTS
    Relativistic Corrections:          scalar (ZORA,MAPA)                       

    Nuclear Charge Density Model:      Point Charge Nuclei                      
    Core Treatment:                    Frozen Orbital(s)                        

    Hyperfine or Zeeman Interaction:   ---                                      

 Settings for Grimme D3 dispersion correction

      damping                        BJ
      s6                          1.000
      s8                          2.700
      a1                          0.430
      a2                          4.236

 Other (technical) parameters

      alpha                      14.000
      version                         4
 



 ===============
 G E O M E T R Y  ***  3D  Molecule  ***
 ===============
  

 ATOMS
 =====                            X Y Z                    CHARGE
                                (Angstrom)             Nucl     +Core       At.Mass
                       --------------------------    ----------------       -------
    1  C               0.1034    0.1056   -0.4678      6.00      6.00       12.0000
    2  C              -0.2054   -0.5095    0.8315      6.00      6.00       12.0000
    3  Cl              1.6518    1.2327   -0.2123     17.00     17.00       34.9689
    4  H               0.4526   -0.6097   -1.2154      1.00      1.00        1.0078
    5  H              -0.8114    0.0424    1.5458      1.00      1.00        1.0078
    6  C              -0.9633    0.9445   -0.9927      6.00      6.00       12.0000
    7  N              -1.8379    1.5891   -1.4041      7.00      7.00       14.0031
    8  C               0.3325   -1.7302    1.2039      6.00      6.00       12.0000
    9  N               0.7806   -2.7727    1.5162      7.00      7.00       14.0031


 FRAGMENTS
 =========                                     Atoms in this Fragment     Cart. coord.s (Angstrom)
                                               -------------------------------------------------------
    1  C                                                 1  C            0.1034    0.1056   -0.4678
    2  C                                                 2  C           -0.2054   -0.5095    0.8315
    3  C                                                 6  C           -0.9633    0.9445   -0.9927
    4  C                                                 8  C            0.3325   -1.7302    1.2039
    5  Cl                                                3  Cl           1.6518    1.2327   -0.2123
    6  H                                                 4  H            0.4526   -0.6097   -1.2154
    7  H                                                 5  H           -0.8114    0.0424    1.5458
    8  N                                                 7  N           -1.8379    1.5891   -1.4041
    9  N                                                 9  N            0.7806   -2.7727    1.5162


 Interatomic Distance Matrix (Angstrom)
 --------------------------------------

   1)     0.000
   2)     1.470   0.000
   3)     1.932   2.752   0.000
   4)     1.092   2.152   2.416   0.000
   5)     2.213   1.087   3.252   3.106   0.000
   6)     1.455   2.453   2.744   2.114   2.698   0.000
   7)     2.616   3.474   3.705   3.181   3.485   1.162   0.000
   8)     2.493   1.385   3.539   2.669   2.137   3.696   4.747   0.000
   9)     3.561   2.562   4.449   3.500   3.234   4.812   5.866   1.177   0.000

 Min. Distance =    1.0872
 Max. Distance =    5.8660



 =====================================
 S Y M M E T R Y ,   E L E C T R O N S
 =====================================
  
 Symmetry: NOSYM

 Irreducible Representations, including subspecies
 -------------------------------------------------
 A


 Configuration of Valence Electrons
 ==================================
 ( determined in the SCF procedure )

 Total:   57

 ===============
 W A R N I N G :
 ===============

 The number of electrons does not correspond to doubly occupied orbitals,
 i.e. there would be one orbital with 0.5-alpha and 0.5-beta electrons.

 Normally, this corresponds to a doublet that should be treated within
 the UNRESTRICTED framework. For example, for a doublet:

   CHARGE   0.0 1.0
   Unrestricted

 See the online manual (http://www.scm.com) for more information on
 how to use the UNRESTRICTED framework.

 If you are definitely certain that for this job the restricted open-shell
 is appropriate, you can overcome this warning by placing on input:
   ALLOW ROKS

 In case of doubt, contact support@scm.com with this problem.

 Net Charge: 0 (Nuclei minus Electrons)

 Aufbau principle for MO occupations will be applied through SCF cycle no.     100
 Thereafter, the program will assign electrons to MOs that are spatially
 similar to the occupied MOs in a "reference" cycle ("KeepOrbitals").
 The reference cycle is always the PREVIOUS cycle: it will evolve with
 the SCF procedure.
 ***************************************************************************************************



                                      ****************************************
                                      *  B U I L D : (Fragments, Functions)  *
                                      ****************************************
  



 =======
 S F O s  ***  (Symmetrized Fragment Orbitals)  ***
 =======
  
 SFOs are linear combinations of (valence) Fragment Orbitals (FOs), such that the SFOs transform as the
 irreducible representations of the (molecular) symmetry group. Each SFO is therefore characterized by
 an irrep of the molecule and by a few (or only one) generating FOs.
 The SFOs constitute a symmetry-adapted basis for the Fock matrix. The MO eigenvector coefficients in
 this basis provide a direct interpretation of the MOs in terms of Frontier Orbital Theory.

 The SFOs are combined with auxiliary Core Functions (CFs) to ensure orthogonalization on the (frozen)
 Core Orbitals (COs). The Core-orthogonalized SFOs (CSFOs) constitute the true Fock basis.

 The FOs, and hence also the (C)SFOs are combinations of the elementary basis functions (BAS). The basis
 functions that participate in the description of the SFOs depend on the irrep. The indices of the
 involved functions are printed below for each irrep.
 (The complete list of primitive basis functions is printed in another section)

 Total nr. of (C)SFOs (summation over all irreps) :   212

 NOTE: a (C)SFO that is defined as a combination of more than one FO is usually NOT normalized.



                                       === A ===
 Nr. of SFOs :  212
 Cartesian basis functions that participate in this irrep (total number =   242) :
      1     2     3     4     5     6     9    12     7    10
     13     8    11    14    15    16    17    18    19    20
     21    22    23    24    25    26    27    28    29    30
     31    32    33    34    35    36    39    42    37    40
     43    38    41    44    45    46    47    48    49    50
     51    52    53    54    55    56    57    58    59    60
     61    62    63    64    65    66    69    72    67    70
     73    68    71    74    75    76    77    78    79    80
     81    82    83    84    85    86    87    88    89    90
     91    92    93    94    95    96    99   102    97   100
    103    98   101   104   105   106   107   108   109   110
    111   112   113   114   115   116   117   118   119   120
    121   122   123   124   131   132   133   125   128   134
    137   140   126   129   135   138   141   127   130   136
    139   142   143   144   145   146   147   148   149   150
    151   152   153   154   155   156   157   158   159   160
    161   162   163   164   165   166   167   168   169   170
    171   172   173   174   175   176   177   178   179   180
    181   182   183   184   185   186   187   188   191   194
    189   192   195   190   193   196   197   198   199   200
    201   202   203   204   205   206   207   208   209   210
    211   212   213   214   215   216   217   218   221   224
    219   222   225   220   223   226   227   228   229   230
    231   232   233   234   235   236   237   238   239   240
    241   242

    SFO  (index         Fragment          Generating    Expansion in Fragment Orbitals
  indx  incl.CFs)   Occup   Orb.Energy   FragmentType  Coeff.   Orbital     on Fragment
 --------------------------------------------------------------------------------------
     1       1      2.000     -10.066 au  C             1.00      1 S               1
                        (    -273.921 eV)
     2       2      2.000      -0.501 au  C             1.00      2 S               1
                        (     -13.620 eV)
     3       3       --         0.373 au  C             1.00      3 S               1
                        (      10.158 eV)
     4       4       --         5.405 au  C             1.00      4 S               1
                        (     147.073 eV)
     5       5       --        49.848 au  C             1.00      5 S               1
                        (    1356.422 eV)
     6       6      0.667      -0.193 au  C             1.00      1 P:x             1
                        (      -5.239 eV)
     7       7       --         0.169 au  C             1.00      2 P:x             1
                        (       4.589 eV)
     8       8       --         2.013 au  C             1.00      3 P:x             1
                        (      54.789 eV)
     9       9      0.667      -0.193 au  C             1.00      1 P:y             1
                        (      -5.239 eV)
    10      10       --         0.169 au  C             1.00      2 P:y             1
                        (       4.589 eV)
    11      11       --         2.013 au  C             1.00      3 P:y             1
                        (      54.789 eV)
    12      12      0.667      -0.193 au  C             1.00      1 P:z             1
                        (      -5.239 eV)
    13      13       --         0.169 au  C             1.00      2 P:z             1
                        (       4.589 eV)
    14      14       --         2.013 au  C             1.00      3 P:z             1
                        (      54.789 eV)
    15      15       --         1.243 au  C             1.00      1 D:z2            1
                        (      33.824 eV)
    16      16       --         1.243 au  C             1.00      1 D:x2-y2         1
                        (      33.824 eV)
    17      17       --         1.243 au  C             1.00      1 D:xy            1
                        (      33.824 eV)
    18      18       --         1.243 au  C             1.00      1 D:xz            1
                        (      33.824 eV)
    19      19       --         1.243 au  C             1.00      1 D:yz            1
                        (      33.824 eV)
    20      20       --         4.016 au  C             1.00      1 F:z3            1
                        (     109.271 eV)
    21      21       --         4.016 au  C             1.00      1 F:z             1
                        (     109.271 eV)
    22      22       --         4.016 au  C             1.00      1 F:xyz           1
                        (     109.271 eV)
    23      23       --         4.016 au  C             1.00      1 F:z2x           1
                        (     109.271 eV)
    24      24       --         4.016 au  C             1.00      1 F:z2y           1
                        (     109.271 eV)
    25      25       --         4.016 au  C             1.00      1 F:x             1
                        (     109.271 eV)
    26      26       --         4.016 au  C             1.00      1 F:y             1
                        (     109.271 eV)
    27      27      2.000     -10.066 au  C             1.00      1 S               2
                        (    -273.921 eV)
    28      28      2.000      -0.501 au  C             1.00      2 S               2
                        (     -13.620 eV)
    29      29       --         0.373 au  C             1.00      3 S               2
                        (      10.158 eV)
    30      30       --         5.405 au  C             1.00      4 S               2
                        (     147.073 eV)
    31      31       --        49.848 au  C             1.00      5 S               2
                        (    1356.422 eV)
    32      32      0.667      -0.193 au  C             1.00      1 P:x             2
                        (      -5.239 eV)
    33      33       --         0.169 au  C             1.00      2 P:x             2
                        (       4.589 eV)
    34      34       --         2.013 au  C             1.00      3 P:x             2
                        (      54.789 eV)
    35      35      0.667      -0.193 au  C             1.00      1 P:y             2
                        (      -5.239 eV)
    36      36       --         0.169 au  C             1.00      2 P:y             2
                        (       4.589 eV)
    37      37       --         2.013 au  C             1.00      3 P:y             2
                        (      54.789 eV)
    38      38      0.667      -0.193 au  C             1.00      1 P:z             2
                        (      -5.239 eV)
    39      39       --         0.169 au  C             1.00      2 P:z             2
                        (       4.589 eV)
    40      40       --         2.013 au  C             1.00      3 P:z             2
                        (      54.789 eV)
    41      41       --         1.243 au  C             1.00      1 D:z2            2
                        (      33.824 eV)
    42      42       --         1.243 au  C             1.00      1 D:x2-y2         2
                        (      33.824 eV)
    43      43       --         1.243 au  C             1.00      1 D:xy            2
                        (      33.824 eV)
    44      44       --         1.243 au  C             1.00      1 D:xz            2
                        (      33.824 eV)
    45      45       --         1.243 au  C             1.00      1 D:yz            2
                        (      33.824 eV)
    46      46       --         4.016 au  C             1.00      1 F:z3            2
                        (     109.271 eV)
    47      47       --         4.016 au  C             1.00      1 F:z             2
                        (     109.271 eV)
    48      48       --         4.016 au  C             1.00      1 F:xyz           2
                        (     109.271 eV)
    49      49       --         4.016 au  C             1.00      1 F:z2x           2
                        (     109.271 eV)
    50      50       --         4.016 au  C             1.00      1 F:z2y           2
                        (     109.271 eV)
    51      51       --         4.016 au  C             1.00      1 F:x             2
                        (     109.271 eV)
    52      52       --         4.016 au  C             1.00      1 F:y             2
                        (     109.271 eV)
    53      53      2.000     -10.066 au  C             1.00      1 S               3
                        (    -273.921 eV)
    54      54      2.000      -0.501 au  C             1.00      2 S               3
                        (     -13.620 eV)
    55      55       --         0.373 au  C             1.00      3 S               3
                        (      10.158 eV)
    56      56       --         5.405 au  C             1.00      4 S               3
                        (     147.073 eV)
    57      57       --        49.848 au  C             1.00      5 S               3
                        (    1356.422 eV)
    58      58      0.667      -0.193 au  C             1.00      1 P:x             3
                        (      -5.239 eV)
    59      59       --         0.169 au  C             1.00      2 P:x             3
                        (       4.589 eV)
    60      60       --         2.013 au  C             1.00      3 P:x             3
                        (      54.789 eV)
    61      61      0.667      -0.193 au  C             1.00      1 P:y             3
                        (      -5.239 eV)
    62      62       --         0.169 au  C             1.00      2 P:y             3
                        (       4.589 eV)
    63      63       --         2.013 au  C             1.00      3 P:y             3
                        (      54.789 eV)
    64      64      0.667      -0.193 au  C             1.00      1 P:z             3
                        (      -5.239 eV)
    65      65       --         0.169 au  C             1.00      2 P:z             3
                        (       4.589 eV)
    66      66       --         2.013 au  C             1.00      3 P:z             3
                        (      54.789 eV)
    67      67       --         1.243 au  C             1.00      1 D:z2            3
                        (      33.824 eV)
    68      68       --         1.243 au  C             1.00      1 D:x2-y2         3
                        (      33.824 eV)
    69      69       --         1.243 au  C             1.00      1 D:xy            3
                        (      33.824 eV)
    70      70       --         1.243 au  C             1.00      1 D:xz            3
                        (      33.824 eV)
    71      71       --         1.243 au  C             1.00      1 D:yz            3
                        (      33.824 eV)
    72      72       --         4.016 au  C             1.00      1 F:z3            3
                        (     109.271 eV)
    73      73       --         4.016 au  C             1.00      1 F:z             3
                        (     109.271 eV)
    74      74       --         4.016 au  C             1.00      1 F:xyz           3
                        (     109.271 eV)
    75      75       --         4.016 au  C             1.00      1 F:z2x           3
                        (     109.271 eV)
    76      76       --         4.016 au  C             1.00      1 F:z2y           3
                        (     109.271 eV)
    77      77       --         4.016 au  C             1.00      1 F:x             3
                        (     109.271 eV)
    78      78       --         4.016 au  C             1.00      1 F:y             3
                        (     109.271 eV)
    79      79      2.000     -10.066 au  C             1.00      1 S               4
                        (    -273.921 eV)
    80      80      2.000      -0.501 au  C             1.00      2 S               4
                        (     -13.620 eV)
    81      81       --         0.373 au  C             1.00      3 S               4
                        (      10.158 eV)
    82      82       --         5.405 au  C             1.00      4 S               4
                        (     147.073 eV)
    83      83       --        49.848 au  C             1.00      5 S               4
                        (    1356.422 eV)
    84      84      0.667      -0.193 au  C             1.00      1 P:x             4
                        (      -5.239 eV)
    85      85       --         0.169 au  C             1.00      2 P:x             4
                        (       4.589 eV)
    86      86       --         2.013 au  C             1.00      3 P:x             4
                        (      54.789 eV)
    87      87      0.667      -0.193 au  C             1.00      1 P:y             4
                        (      -5.239 eV)
    88      88       --         0.169 au  C             1.00      2 P:y             4
                        (       4.589 eV)
    89      89       --         2.013 au  C             1.00      3 P:y             4
                        (      54.789 eV)
    90      90      0.667      -0.193 au  C             1.00      1 P:z             4
                        (      -5.239 eV)
    91      91       --         0.169 au  C             1.00      2 P:z             4
                        (       4.589 eV)
    92      92       --         2.013 au  C             1.00      3 P:z             4
                        (      54.789 eV)
    93      93       --         1.243 au  C             1.00      1 D:z2            4
                        (      33.824 eV)
    94      94       --         1.243 au  C             1.00      1 D:x2-y2         4
                        (      33.824 eV)
    95      95       --         1.243 au  C             1.00      1 D:xy            4
                        (      33.824 eV)
    96      96       --         1.243 au  C             1.00      1 D:xz            4
                        (      33.824 eV)
    97      97       --         1.243 au  C             1.00      1 D:yz            4
                        (      33.824 eV)
    98      98       --         4.016 au  C             1.00      1 F:z3            4
                        (     109.271 eV)
    99      99       --         4.016 au  C             1.00      1 F:z             4
                        (     109.271 eV)
   100     100       --         4.016 au  C             1.00      1 F:xyz           4
                        (     109.271 eV)
   101     101       --         4.016 au  C             1.00      1 F:z2x           4
                        (     109.271 eV)
   102     102       --         4.016 au  C             1.00      1 F:z2y           4
                        (     109.271 eV)
   103     103       --         4.016 au  C             1.00      1 F:x             4
                        (     109.271 eV)
   104     104       --         4.016 au  C             1.00      1 F:y             4
                        (     109.271 eV)
   105     105      2.000    -101.116 au  Cl            1.00      1 S               5
                        (   -2751.516 eV)
   106     106      2.000      -9.276 au  Cl            1.00      2 S               5
                        (    -252.419 eV)
   107     107      2.000      -0.754 au  Cl            1.00      3 S               5
                        (     -20.523 eV)
   108     108       --         0.194 au  Cl            1.00      4 S               5
                        (       5.292 eV)
   109     109       --         1.998 au  Cl            1.00      5 S               5
                        (      54.377 eV)
   110     110       --        12.618 au  Cl            1.00      6 S               5
                        (     343.355 eV)
   111     111       --       205.328 au  Cl            1.00      7 S               5
                        (    5587.258 eV)
   112     112      2.000      -7.038 au  Cl            1.00      1 P:x             5
                        (    -191.503 eV)
   113     113      1.667      -0.310 au  Cl            1.00      2 P:x             5
                        (      -8.439 eV)
   114     114       --         0.226 au  Cl            1.00      3 P:x             5
                        (       6.147 eV)
   115     115       --         2.102 au  Cl            1.00      4 P:x             5
                        (      57.194 eV)
   116     116       --        18.665 au  Cl            1.00      5 P:x             5
                        (     507.904 eV)
   117     117      2.000      -7.038 au  Cl            1.00      1 P:y             5
                        (    -191.503 eV)
   118     118      1.667      -0.310 au  Cl            1.00      2 P:y             5
                        (      -8.439 eV)
   119     119       --         0.226 au  Cl            1.00      3 P:y             5
                        (       6.147 eV)
   120     120       --         2.102 au  Cl            1.00      4 P:y             5
                        (      57.194 eV)
   121     121       --        18.665 au  Cl            1.00      5 P:y             5
                        (     507.904 eV)
   122     122      2.000      -7.038 au  Cl            1.00      1 P:z             5
                        (    -191.503 eV)
   123     123      1.667      -0.310 au  Cl            1.00      2 P:z             5
                        (      -8.439 eV)
   124     124       --         0.226 au  Cl            1.00      3 P:z             5
                        (       6.147 eV)
   125     125       --         2.102 au  Cl            1.00      4 P:z             5
                        (      57.194 eV)
   126     126       --        18.665 au  Cl            1.00      5 P:z             5
                        (     507.904 eV)
   127     127       --         0.388 au  Cl            1.00      1 D:z2            5
                        (      10.568 eV)
   128     128       --         0.388 au  Cl            1.00      1 D:x2-y2         5
                        (      10.568 eV)
   129     129       --         0.388 au  Cl            1.00      1 D:xy            5
                        (      10.568 eV)
   130     130       --         0.388 au  Cl            1.00      1 D:xz            5
                        (      10.568 eV)
   131     131       --         0.388 au  Cl            1.00      1 D:yz            5
                        (      10.568 eV)
[...]
                                    2.50%     1 S              -6.532  1.00     7 H
                                    2.17%     1 P:z            -7.062  1.00     9 N
                                    1.99%     1 P:x            -5.239  0.67     1 C
                                    1.81%     2 S             -13.620  2.00     1 C
                                   -1.78%     2 P:z             4.589  0.00     2 C
                                   -1.67%     3 S              10.158  0.00     3 C
                                   -1.64%     2 S             -13.620  2.00     3 C
                                    1.63%     1 P:y            -5.239  0.67     3 C
                                   -1.47%     2 S               2.394  0.00     7 H
                                   -1.22%     2 P:z             4.589  0.00     4 C
                                    1.20%     1 P:y            -7.062  1.00     8 N
                                   -1.19%     2 P:z             7.649  0.00     8 N
                                   -1.10%     3 S              40.869  0.00     6 H
                                    1.09%     2 S             -13.620  2.00     2 C
                                   -1.08%     2 P:y             4.589  0.00     3 C
      -0.217  0.00    34 A         56.18%     2 S               2.394  0.00     7 H
                                   43.78%     1 S              -6.532  1.00     7 H
                                   -9.57%     2 P:z             4.589  0.00     2 C
                                   -8.70%     2 P:x             4.589  0.00     2 C
                                    3.83%     2 P:z             4.589  0.00     4 C
                                   -3.69%     3 S              10.158  0.00     2 C
                                    3.68%     1 S              -6.532  1.00     6 H
                                    3.53%     1 P:y            -5.239  0.67     3 C
                                    3.26%     1 P:y            -7.062  1.00     8 N
                                    2.99%     1 P:x            -5.239  0.67     4 C
                                   -2.70%     2 S               2.394  0.00     6 H
                                   -2.47%     2 P:z             4.589  0.00     3 C
                                   -2.33%     3 S              10.158  0.00     4 C
                                   -2.22%     2 S             -13.620  2.00     4 C
                                    2.15%     1 P:x            -7.062  1.00     9 N
                                    2.08%     2 S             -13.620  2.00     2 C
                                   -2.07%     1 P:z            -5.239  0.67     2 C
                                    1.94%     1 P:z            -5.239  0.67     4 C
                                    1.89%     1 P:z            -5.239  0.67     3 C
                                   -1.84%     2 P:y             4.589  0.00     4 C
                                    1.80%     1 P:x            -5.239  0.67     3 C
                                    1.62%     2 P:x             4.589  0.00     3 C
                                    1.59%     2 S             -13.620  2.00     1 C
                                    1.53%     1 P:z            -7.062  1.00     8 N
                                   -1.40%     2 P:z             4.589  0.00     1 C
                                   -1.29%     3 S              14.073  0.00     9 N
                                   -1.18%     3 S              40.869  0.00     7 H
                                    1.17%     1 P:y            -5.239  0.67     2 C
                                   -1.03%     2 P:y             4.589  0.00     2 C
       0.003  0.00    35 A         17.43%     1 P:y            -5.239  0.67     3 C
                                   13.56%     1 P:z            -5.239  0.67     4 C
                                   10.54%     1 P:y            -7.062  1.00     8 N
                                    9.03%     1 P:x            -5.239  0.67     4 C
                                    8.28%     2 S               2.394  0.00     7 H
                                    7.35%     1 P:z            -7.062  1.00     9 N
                                    6.73%     1 P:x            -5.239  0.67     3 C
                                    5.86%     1 S              -6.532  1.00     7 H
                                    5.70%     1 P:x            -7.062  1.00     8 N
                                    5.62%     1 P:x            -7.062  1.00     9 N
                                   -5.59%     2 P:z             4.589  0.00     2 C
                                    4.77%     1 P:y            -5.239  0.67     4 C
                                    4.55%     1 S              -6.532  1.00     6 H
                                   -4.00%     2 P:z             4.589  0.00     1 C
                                    2.86%     2 S               2.394  0.00     6 H
                                    2.80%     1 P:y            -7.062  1.00     9 N
                                   -2.67%     2 P:y             4.589  0.00     2 C
                                    2.08%     1 P:y            -5.239  0.67     2 C
                                   -2.04%     2 P:x             4.589  0.00     4 C
                                    1.99%     1 P:y            -5.239  0.67     1 C
                                   -1.74%     2 P:z             7.649  0.00     9 N
                                    1.60%     1 P:z            -5.239  0.67     2 C
                                   -1.60%     2 P:y             7.649  0.00     8 N
                                    1.02%     1 D:xy           10.568  0.00     5 Cl
                                    1.01%     2 P:y            -8.439  1.67     5 Cl
       0.574  0.00    36 A         24.25%     1 P:x            -5.239  0.67     4 C
                                   14.30%     2 S               2.394  0.00     6 H
                                   11.86%     1 P:x            -7.062  1.00     9 N
                                   11.46%     1 P:x            -5.239  0.67     2 C
                                   -8.32%     2 P:y             4.589  0.00     1 C
                                    7.25%     1 P:y            -5.239  0.67     3 C
                                    5.64%     1 P:y            -5.239  0.67     1 C
                                    4.82%     1 P:x            -5.239  0.67     1 C
                                   -4.62%     2 P:x             4.589  0.00     4 C
                                    4.19%     1 S              -6.532  1.00     6 H
                                    3.93%     2 P:y             4.589  0.00     2 C
                                    3.86%     1 P:y            -5.239  0.67     2 C
                                    3.64%     1 P:y            -7.062  1.00     8 N
                                   -3.62%     2 P:z             4.589  0.00     1 C
                                    3.50%     1 P:y            -7.062  1.00     9 N
                                    3.42%     1 P:y            -5.239  0.67     4 C
                                    3.34%     1 P:x            -5.239  0.67     3 C
                                   -3.31%     2 P:x             4.589  0.00     2 C
                                    2.46%     1 P:z            -5.239  0.67     3 C
                                    2.40%     3 P:x             6.147  0.00     5 Cl
                                   -1.97%     2 P:z             4.589  0.00     4 C
                                    1.94%     1 P:z            -5.239  0.67     4 C
                                   -1.93%     2 P:x             7.649  0.00     9 N
                                    1.85%     2 P:y            -8.439  1.67     5 Cl
                                    1.72%     2 P:y             4.589  0.00     3 C
                                   -1.45%     2 P:y             7.649  0.00     8 N
                                    1.43%     1 P:x            -7.062  1.00     8 N
                                    1.42%     2 P:x            -8.439  1.67     5 Cl
                                   -1.38%     4 S               5.292  0.00     5 Cl
                                    1.34%     1 P:z            -5.239  0.67     2 C
                                    1.21%     1 D:xy           10.568  0.00     5 Cl
                                   -1.13%     2 P:x             4.589  0.00     1 C
                                    1.07%     1 P:z            -7.062  1.00     9 N
                                    1.03%     1 P:z            -7.062  1.00     8 N
                                    1.03%     1 S              -6.532  1.00     7 H
       0.959  0.00    37 A         29.19%     2 P:y             4.589  0.00     2 C
                                   16.52%     2 P:y             4.589  0.00     1 C
                                   10.94%     2 P:y             4.589  0.00     4 C
                                   10.56%     2 P:z             4.589  0.00     1 C
                                   10.53%     2 P:z             4.589  0.00     2 C
                                   -9.98%     3 S              14.073  0.00     8 N
                                   -8.54%     3 S              14.073  0.00     9 N
                                    7.20%     1 P:x            -5.239  0.67     3 C
                                    6.30%     2 P:x             4.589  0.00     3 C
                                    6.06%     2 P:y             4.589  0.00     3 C
                                    5.52%     1 P:y            -5.239  0.67     4 C
                                   -5.08%     2 S             -13.620  2.00     4 C
                                   -4.89%     3 S              10.158  0.00     4 C
                                    4.41%     1 P:z            -5.239  0.67     2 C
                                    4.15%     2 P:x             4.589  0.00     2 C
                                    2.82%     1 P:y            -5.239  0.67     2 C
                                    2.47%     2 P:x             4.589  0.00     4 C
                                    2.25%     1 P:y            -5.239  0.67     1 C
                                    2.20%     1 P:x            -5.239  0.67     4 C
                                    2.14%     2 P:z             4.589  0.00     3 C
                                    1.89%     1 P:z            -5.239  0.67     1 C
                                    1.50%     3 P:y             6.147  0.00     5 Cl
                                    1.40%     1 P:x            -5.239  0.67     1 C
                                   -1.05%     3 S              10.158  0.00     3 C

 Energy gradients wrt nuclear displacements
 ==========================================

     Atom      Cartesian (a.u./angstrom)
                 X         Y         Z
 ----------------------------------------
     1 C     0.000011 -0.000035  0.000056
     2 C    -0.000003  0.000057 -0.000021
     3 Cl    0.000046 -0.000119 -0.000064
     4 H     0.000012 -0.000105  0.000011
     5 H    -0.000005  0.000114 -0.000018
     6 C     0.000092 -0.000020 -0.000063
     7 N     0.000076  0.000019 -0.000122
     8 C    -0.000075  0.000011  0.000067
     9 N    -0.000154  0.000079  0.000154
 ----------------------------------------



 =======================================================================
 Electrostatic potential at the Nuclei due to electrons and other nuclei
 =======================================================================
  
         Atom                  Potential
         ----                  ---------
     1)   C                  14.63552074
     2)   C                  14.68052246
     3)   Cl                 64.83192011
     4)   H                   1.01613885
     5)   H                   1.01800149
     6)   C                  14.72518457
     7)   N                  18.39980408
     8)   C                  14.71947190
     9)   N                  18.38992045
 Mulliken charges used for AMS results%charges...


    =====================
     CALCULATION RESULTS
    =====================

Energy (hartree)            -2.05873652

Gradients (hartree/bohr)
  Index   Atom            d/dx            d/dy            d/dz
      1      C    0.0000058043   -0.0000186915    0.0000296110
      2      C   -0.0000017245    0.0000301539   -0.0000109024
      3     Cl    0.0000244406   -0.0000631291   -0.0000341265
      4      H    0.0000062261   -0.0000556051    0.0000059150
      5      H   -0.0000024765    0.0000601146   -0.0000093294
      6      C    0.0000487695   -0.0000103652   -0.0000335726
      7      N    0.0000403533    0.0000097995   -0.0000647513
      8      C   -0.0000396574    0.0000057051    0.0000356543
      9      N   -0.0000817354    0.0000420179    0.0000815018


--------------
Atomic charges
--------------
  Index   Atom    Charge
      1      C    0.1955
      2      C    0.2049
      3     Cl   -0.1124
      4      H   -0.0450
      5      H   -0.0765
      6      C    0.1315
      7      N   -0.2165
      8      C    0.1309
      9      N   -0.2123


Dipole moment vector    (Debye):     0.13532466   -0.09951512    0.27079316
              magnitude (Debye):     0.31866119


-----------------------
Molecular orbitals info
-----------------------
n orbitals:              212
n spin:                    1

Note: only printing virtual orbitals with
      energy smaller than HOMO + 100. eV

Note: fractional orbital occupations. HOMO and LUMO labels are not well defined!

HOMO (eV):              -8.1595
LUMO (eV):              -6.3721
HOMO-LUMO gap (eV):      1.7874

   Index   Energy (eV)    Occupation
     137       90.3693         0.000       
     136       86.6747         0.000       
     135       85.4282         0.000       
     134       83.7497         0.000       
     133       82.0259         0.000       
     132       80.0920         0.000       
     131       79.4839         0.000       
     130       78.0678         0.000       
     129       75.1903         0.000       
     128       74.9756         0.000       
     127       74.2689         0.000       
     126       72.7983         0.000       
     125       72.4848         0.000       
     124       68.7307         0.000       
     123       67.6922         0.000       
     122       65.8799         0.000       
     121       65.4578         0.000       
     120       64.5967         0.000       
     119       63.6969         0.000       
     118       62.6319         0.000       
     117       62.5261         0.000       
     116       61.3194         0.000       
     115       60.4014         0.000       
     114       60.0056         0.000       
     113       59.6157         0.000       
     112       57.7734         0.000       
     111       56.3294         0.000       
     110       55.1830         0.000       
     109       52.8453         0.000       
     108       51.9400         0.000       
     107       51.1919         0.000       
     106       48.6979         0.000       
     105       46.8438         0.000       
     104       46.3757         0.000       
     103       45.6633         0.000       
     102       44.8119         0.000       
     101       43.7116         0.000       
     100       43.2291         0.000       
      99       41.8683         0.000       
      98       40.4055         0.000       
      97       39.4937         0.000       
      96       38.7342         0.000       
      95       37.3044         0.000       
      94       36.7875         0.000       
      93       36.0110         0.000       
      92       35.3581         0.000       
      91       34.5807         0.000       
      90       34.1651         0.000       
      89       34.0690         0.000       
      88       33.3137         0.000       
      87       32.8024         0.000       
      86       32.0354         0.000       
      85       31.7821         0.000       
      84       31.0304         0.000       
      83       30.8585         0.000       
      82       29.9216         0.000       
      81       29.4192         0.000       
      80       29.0482         0.000       
      79       28.0774         0.000       
      78       27.3840         0.000       
      77       26.9208         0.000       
      76       25.5018         0.000       
      75       24.3192         0.000       
      74       23.7035         0.000       
      73       23.0468         0.000       
      72       21.8931         0.000       
      71       19.9021         0.000       
      70       19.4371         0.000       
      69       19.0354         0.000       
      68       17.7791         0.000       
      67       16.9268         0.000       
      66       16.2176         0.000       
      65       16.0346         0.000       
      64       14.4893         0.000       
      63       14.2170         0.000       
      62       13.7794         0.000       
      61       12.2344         0.000       
      60       11.4108         0.000       
      59       11.0091         0.000       
      58       10.8168         0.000       
      57       10.2312         0.000       
      56        9.8676         0.000       
      55        9.5419         0.000       
      54        9.1847         0.000       
      53        8.3236         0.000       
      52        7.8494         0.000       
      51        7.3867         0.000       
      50        7.3496         0.000       
      49        6.7781         0.000       
      48        6.2694         0.000       
      47        5.7643         0.000       
      46        5.3917         0.000       
      45        5.2996         0.000       
      44        4.6911         0.000       
      43        4.4867         0.000       
      42        4.3799         0.000       
      41        3.9950         0.000       
      40        3.3741         0.000       
      39        2.7741         0.000       
      38        2.3316         0.000       
      37        0.9590         0.000       
      36        0.5741         0.000       
      35        0.0032         0.000       
      34       -0.2174         0.000       
      33       -0.4652         0.000       
      32       -1.5020         0.000       
      31       -1.8479         0.000       
      30       -3.1386         0.000       
      29       -6.3721         1.000 < LUMO
      28       -8.1595         2.000 < HOMO
      27       -8.2749         2.000       
      26       -9.0293         2.000       
      25       -9.1245         2.000       
      24       -9.3413         2.000       
      23       -9.5184         2.000       
      22       -9.7255         2.000       
      21      -10.0599         2.000       
      20      -12.0003         2.000       
      19      -12.2814         2.000       
      18      -14.1598         2.000       
      17      -14.7745         2.000       
      16      -18.5035         2.000       
      15      -20.4571         2.000       
      14      -22.4379         2.000       
      13      -23.4898         2.000       
      12      -23.7211         2.000       
      11     -191.0859         2.000       
      10     -191.1093         2.000       
       9     -191.4082         2.000       
       8     -252.1445         2.000       
       7     -272.0853         2.000       
       6     -272.2277         2.000       
       5     -272.9410         2.000       
       4     -274.0730         2.000       
       3     -382.6095         2.000       
       2     -382.8817         2.000       
       1    -2751.4250         2.000       

AMS application finished. Exiting.
NORMAL TERMINATION
     Total cpu time:     422.58
  Total system time:       2.80
 Total elapsed time:     426.92
NORMAL TERMINATION with warnings
