15
Coordinates from ORCA-job ts_scan Relaxed Surface Scan Step 1 E -65.364036847249
  C       1.593390     -1.027950      0.455124
  C       1.537638     -0.221785     -0.597342
  O       2.446724     -0.265908     -1.585709
  O       0.627374      0.736277     -0.863918
  C      -0.367376      1.041094      0.097088
  C      -1.520278      0.090063      0.063487
  C      -2.265676     -0.207197      1.113893
  H       0.825797     -1.026259      1.208635
  H       2.409588     -1.727674      0.526681
  H       2.272255      0.455531     -2.194062
  H       0.079333      1.100536      1.090573
  H      -0.709611      2.036982     -0.180565
  H      -1.760679     -0.313727     -0.913938
  H      -3.128667     -0.852451      1.025672
  H      -2.039812      0.182466      2.099689
>
15
Coordinates from ORCA-job ts_scan Relaxed Surface Scan Step 2 E -65.364282237538
  C       1.552259     -1.023117      0.467929
  C       1.523771     -0.221116     -0.588777
  O       2.444832     -0.283824     -1.564951
  O       0.632010      0.749964     -0.870441
  C      -0.372272      1.064999      0.077902
  C      -1.519761      0.109086      0.049272
  C      -2.213419     -0.243419      1.117344
  H       0.775340     -1.007096      1.211053
  H       2.356538     -1.735145      0.552921
  H       2.289403      0.437256     -2.178864
  H       0.066335      1.138188      1.074156
  H      -0.715357      2.055747     -0.216434
  H      -1.800030     -0.253404     -0.933729
  H      -3.075753     -0.891027      1.039594
  H      -1.943895      0.102906      2.108335
>
15
Coordinates from ORCA-job ts_scan Relaxed Surface Scan Step 3 E -65.364381908117
  C       1.511531     -1.017647      0.480852
  C       1.508611     -0.220685     -0.580006
  O       2.440546     -0.302305     -1.544451
  O       0.634897      0.762314     -0.876736
  C      -0.376889      1.088548      0.060264
  C      -1.520348      0.129038      0.036458
  C      -2.161164     -0.278603      1.117346
  H       0.727392     -0.987476      1.215150
  H       2.304904     -1.740361      0.578408
  H       2.303851      0.417899     -2.163810
  H       0.055221      1.172760      1.058559
  H      -0.718969      2.075239     -0.248218
  H      -1.839133     -0.194595     -0.948348
  H      -3.020591     -0.931424      1.050444
  H      -1.849860      0.027299      2.109397
>
15
Coordinates from ORCA-job ts_scan Relaxed Surface Scan Step 4 E -65.364313214437
  C       1.473044     -1.009632      0.496301
  C       1.492361     -0.220379     -0.570171
  O       2.431310     -0.324139     -1.525709
  O       0.636984      0.774311     -0.881188
  C      -0.381122      1.112476      0.045210
  C      -1.521854      0.150744      0.024178
  C      -2.108543     -0.314545      1.112007
  H       0.685369     -0.963151      1.224982
  H       2.255101     -1.743177      0.604782
  H       2.311278      0.392962     -2.152066
  H       0.044894      1.205093      1.045403
  H      -0.720104      2.096339     -0.275067
  H      -1.879091     -0.133135     -0.959631
  H      -2.963791     -0.973848      1.054219
  H      -1.755837     -0.049920      2.102059
>
15
Coordinates from ORCA-job ts_scan Relaxed Surface Scan Step 5 E -65.364043960799
  C       1.436709     -0.999216      0.514247
  C       1.474966     -0.220047     -0.559163
  O       2.415970     -0.350002     -1.509566
  O       0.639119      0.787163     -0.882754
  C      -0.384806      1.137213      0.033378
  C      -1.523229      0.173590      0.012789
  C      -2.055592     -0.351394      1.100895
  H       0.650759     -0.932623      1.242009
  H       2.206317     -1.744690      0.631170
  H       2.310458      0.361866     -2.144428
  H       0.035143      1.236199      1.035517
  H      -0.719327      2.119037     -0.297080
  H      -1.917524     -0.070493     -0.967449
  H      -2.904921     -1.018978      1.049384
  H      -1.664042     -0.127626      2.086362
>
15
Coordinates from ORCA-job ts_scan Relaxed Surface Scan Step 6 E -65.363535939555
  C       1.402967     -0.985850      0.535450
  C       1.456309     -0.219450     -0.546517
  O       2.392345     -0.381418     -1.497077
  O       0.642323      0.802277     -0.879931
  C      -0.387692      1.163492      0.025720
  C      -1.523395      0.197393      0.002195
  C      -2.002193     -0.389850      1.082871
  H       0.626471     -0.892777      1.268953
  H       2.157689     -1.745780      0.657287
  H       2.298236      0.322285     -2.142712
  H       0.025388      1.267390      1.030175
  H      -0.716812      2.143821     -0.313730
  H      -1.952071     -0.007056     -0.972555
  H      -2.843305     -1.068040      1.032940
  H      -1.576261     -0.206437      2.062239
>
15
Coordinates from ORCA-job ts_scan Relaxed Surface Scan Step 7 E -65.362743683879
  C       1.372315     -0.968697      0.560769
  C       1.436999     -0.216400     -0.530400
  O       2.355294     -0.419948     -1.490408
  O       0.652251      0.827331     -0.865862
  C      -0.388713      1.193659      0.026058
  C      -1.516814      0.219729     -0.008671
  C      -1.948224     -0.430603      1.055216
  H       0.620800     -0.834362      1.312059
  H       2.102899     -1.752390      0.679920
  H       2.260265      0.265407     -2.155301
  H       0.012749      1.302597      1.034674
  H      -0.714235      2.172189     -0.321049
  H      -1.969051      0.049306     -0.979212
  H      -2.775891     -1.124653      0.996854
  H      -1.500644     -0.283165      2.030662
>
15
Coordinates from ORCA-job ts_scan Relaxed Surface Scan Step 8 E -65.361615533868
  C       1.346759     -0.946157      0.593112
  C       1.416880     -0.212643     -0.510206
  O       2.303504     -0.467346     -1.487815
  O       0.665586      0.856077     -0.843843
  C      -0.388857      1.225993      0.032154
  C      -1.508718      0.243981     -0.021015
  C      -1.892022     -0.475595      1.016040
  H       0.637155     -0.757139      1.371516
  H       2.046569     -1.758479      0.705839
  H       2.197817      0.192654     -2.176270
  H      -0.002469      1.337797      1.046226
  H      -0.709147      2.203379     -0.321963
  H      -1.982084      0.111525     -0.987297
  H      -2.704058     -1.186520      0.941058
  H      -1.426914     -0.367527      1.987770
>
15
Coordinates from ORCA-job ts_scan Relaxed Surface Scan Step 9 E -65.360145685272
  C       1.329577     -0.914534      0.637282
  C       1.395532     -0.207876     -0.483275
  O       2.227733     -0.528608     -1.488981
  O       0.684252      0.889934     -0.810294
  C      -0.387876      1.262175      0.045882
  C      -1.498071      0.271936     -0.036304
  C      -1.830661     -0.527802      0.958737
  H       0.688057     -0.650557      1.451576
  H       1.986088     -1.763384      0.741193
  H       2.094280      0.094545     -2.206336
  H      -0.022500      1.374724      1.067377
  H      -0.699835      2.239565     -0.314464
  H      -1.991311      0.184890     -0.997720
  H      -2.623608     -1.256568      0.853897
  H      -1.351659     -0.468441      1.926739
>
15
Coordinates from ORCA-job ts_scan Relaxed Surface Scan Step 10 E -65.358319700524
  C       1.315551     -0.880144      0.686476
  C       1.372372     -0.204200     -0.452929
  O       2.137010     -0.595384     -1.486868
  O       0.703676      0.921816     -0.773386
  C      -0.387071      1.298515      0.061556
  C      -1.487470      0.301340     -0.051407
  C      -1.763164     -0.580569      0.890842
  H       0.756836     -0.537035      1.532029
  H       1.922372     -1.765838      0.784999
  H       1.970203     -0.009083     -2.227984
  H      -0.044038      1.411984      1.090282
  H      -0.688491      2.276074     -0.306009
  H      -2.004458      0.262824     -1.003401
  H      -2.535655     -1.325557      0.750487
  H      -1.267673     -0.574744      1.850623
>
15
Coordinates from ORCA-job ts_scan Relaxed Surface Scan Step 11 E -65.356077947575
  C       1.293663     -0.855785      0.725017
  C       1.349301     -0.201918     -0.426867
  O       2.054105     -0.649867     -1.479986
  O       0.721050      0.948487     -0.741361
  C      -0.386851      1.330196      0.073623
  C      -1.475644      0.324141     -0.061861
  C      -1.695263     -0.621882      0.832777
  H       0.809223     -0.450811      1.589388
  H       1.854035     -1.771892      0.821673
  H       1.864914     -0.086816     -2.233734
  H      -0.062546      1.448076      1.107636
  H      -0.680822      2.305815     -0.303889
  H      -2.012728      0.319007     -1.003347
  H      -2.445742     -1.383494      0.662878
  H      -1.186697     -0.653258      1.783362
>
15
Coordinates from ORCA-job ts_scan Relaxed Surface Scan Step 12 E -65.353298211304
  C       1.261713     -0.845311      0.747942
  C       1.328142     -0.200074     -0.407889
  O       1.985250     -0.686880     -1.474465
  O       0.738194      0.972602     -0.712622
  C      -0.387032      1.356991      0.082612
  C      -1.459726      0.337437     -0.068507
  C      -1.631263     -0.648850      0.793689
  H       0.838335     -0.397768      1.623725
  H       1.779242     -1.786740      0.841838
  H       1.786717     -0.131939     -2.231895
  H      -0.079432      1.483109      1.120666
  H      -0.678071      2.328151     -0.307576
  H      -2.002316      0.341273     -1.006730
  H      -2.354453     -1.431576      0.600898
  H      -1.125300     -0.690425      1.743624
>
15
Coordinates from ORCA-job ts_scan Relaxed Surface Scan Step 13 E -65.349834895419
  C       1.223485     -0.845100      0.759700
  C       1.308723     -0.198799     -0.394138
  O       1.926587     -0.711328     -1.472137
  O       0.754570      0.993944     -0.685338
  C      -0.388272      1.380547      0.089690
  C      -1.442071      0.345204     -0.073023
  C      -1.570725     -0.665394      0.769623
  H       0.852325     -0.369166      1.644393
  H       1.701480     -1.807926      0.848208
  H       1.727920     -0.154168     -2.227970
  H      -0.096540      1.517065      1.131042
  H      -0.677754      2.345855     -0.315182
  H      -1.976237      0.340021     -1.015951
  H      -2.260071     -1.473833      0.558087
  H      -1.083421     -0.696922      1.728305
>
15
Coordinates from ORCA-job ts_scan Relaxed Surface Scan Step 14 E -65.345598328922
  C       1.183494     -0.850744      0.766550
  C       1.290558     -0.198119     -0.382090
  O       1.869684     -0.729780     -1.472431
  O       0.771502      1.013330     -0.655717
  C      -0.391425      1.402503      0.096165
  C      -1.424481      0.350932     -0.077961
  C      -1.510786     -0.675635      0.752682
  H       0.863018     -0.354183      1.659868
  H       1.621595     -1.833251      0.846872
  H       1.674606     -0.164903     -2.223531
  H      -0.117414      1.550289      1.140821
  H      -0.677709      2.361378     -0.325292
  H      -1.939727      0.326767     -1.030945
  H      -2.158769     -1.513622      0.524570
  H      -1.054147     -0.684963      1.725747
>
15
Coordinates from ORCA-job ts_scan Relaxed Surface Scan Step 15 E -65.340593126094
  C       1.144182     -0.861391      0.771874
  C       1.272875     -0.198564     -0.369430
  O       1.806880     -0.746222     -1.475121
  O       0.790307      1.031066     -0.620266
  C      -0.398010      1.423944      0.102282
  C      -1.408309      0.356444     -0.085367
  C      -1.449323     -0.680788      0.738465
  H       0.879231     -0.349590      1.675135
  H       1.539742     -1.862831      0.839982
  H       1.620089     -0.167620     -2.217920
  H      -0.145992      1.583192      1.150756
  H      -0.676905      2.376098     -0.338244
  H      -1.894027      0.306268     -1.052614
  H      -2.046069     -1.552480      0.496421
  H      -1.034670     -0.657526      1.729357
>
15
Coordinates from ORCA-job ts_scan Relaxed Surface Scan Step 16 E -65.334875426217
  C       1.104912     -0.878208      0.775203
  C       1.255628     -0.200220     -0.356504
  O       1.741649     -0.758987     -1.478883
  O       0.809444      1.044792     -0.579701
  C      -0.408923      1.444978      0.106748
  C      -1.395655      0.362902     -0.093314
  C      -1.386848     -0.680859      0.728427
  H       0.898447     -0.360226      1.690676
  H       1.460913     -1.895636      0.825466
  H       1.569156     -0.161682     -2.210370
  H      -0.181433      1.618870      1.158387
  H      -0.674304      2.388794     -0.358593
  H      -1.843571      0.281902     -1.076539
  H      -1.924158     -1.587660      0.476061
  H      -1.025258     -0.618762      1.738243
>
15
Coordinates from ORCA-job ts_scan Relaxed Surface Scan Step 17 E -65.328641994660
  C       1.067374     -0.900958      0.778109
  C       1.239681     -0.202140     -0.341416
  O       1.666503     -0.768952     -1.483901
  O       0.835288      1.057581     -0.528241
  C      -0.425007      1.465590      0.108237
  C      -1.384191      0.368638     -0.104050
  C      -1.321478     -0.677029      0.721161
  H       0.926908     -0.385957      1.708449
  H       1.380111     -1.933649      0.802880
  H       1.520166     -0.145673     -2.199398
  H      -0.228452      1.659747      1.162243
  H      -0.670754      2.397679     -0.389480
  H      -1.789195      0.253957     -1.102463
  H      -1.795913     -1.617164      0.465257
  H      -1.021041     -0.571672      1.747921
>
15
Coordinates from ORCA-job ts_scan Relaxed Surface Scan Step 18 E -65.322239497124
  C       1.030895     -0.928500      0.780408
  C       1.227935     -0.202553     -0.324086
  O       1.583934     -0.772789     -1.488780
  O       0.871259      1.068914     -0.463745
  C      -0.446900      1.485395      0.105309
  C      -1.373155      0.373378     -0.115596
  C      -1.253799     -0.671165      0.717563
  H       0.966515     -0.427744      1.727835
  H       1.298245     -1.974408      0.771730
  H       1.474516     -0.119964     -2.184491
  H      -0.285470      1.708926      1.158749
  H      -0.665401      2.399378     -0.435688
  H      -1.735590      0.224289     -1.125891
  H      -1.672620     -1.637737      0.464051
  H      -1.020364     -0.525421      1.757940
>
15
Coordinates from ORCA-job ts_scan Relaxed Surface Scan Step 19 E -65.316371805987
  C       0.999518     -0.975772      0.780603
  C       1.227634     -0.197495     -0.296458
  O       1.463425     -0.756383     -1.496917
  O       0.952980      1.082070     -0.343238
  C      -0.493346      1.509859      0.090060
  C      -1.354335      0.373651     -0.133487
  C      -1.177168     -0.661201      0.725051
  H       1.040461     -0.517255      1.752203
  H       1.202597     -2.034205      0.711096
  H       1.423990     -0.059603     -2.156987
  H      -0.378715      1.791242      1.133270
  H      -0.653838      2.380963     -0.533272
  H      -1.673684      0.177871     -1.150330
  H      -1.556335     -1.647833      0.489301
  H      -1.023183     -0.465910      1.774414
>
15
Coordinates from ORCA-job ts_scan Relaxed Surface Scan Step 20 E -65.362808061653
  C       0.878164     -1.367214      0.519524
  C       1.574929     -0.254381     -0.130157
  O       1.478478     -0.295518     -1.469982
  O       2.134593      0.648910      0.437055
  C      -1.227411      1.649610     -0.221070
  C      -1.393649      0.336562     -0.115180
  C      -0.933077     -0.437143      1.033698
  H       1.292766     -1.633360      1.482113
  H       0.620747     -2.197997     -0.123337
  H       1.898236      0.504465     -1.806029
  H      -0.741988      2.218997      0.561830
  H      -1.573168      2.191270     -1.090951
  H      -1.870413     -0.209629     -0.920914
  H      -1.528982     -1.301182      1.301343
  H      -0.609227      0.146611      1.887366
>
15
Coordinates from ORCA-job ts_scan Relaxed Surface Scan Step 21 E -65.375584272993
  C       0.814666     -1.352290      0.492662
  C       1.594117     -0.262003     -0.114580
  O       1.532287     -0.266736     -1.455981
  O       2.191415      0.589198      0.491015
  C      -1.283807      1.638619     -0.236066
  C      -1.396609      0.323421     -0.107856
  C      -0.870568     -0.424173      1.039094
  H       1.237158     -1.694755      1.428413
  H       0.532807     -2.143600     -0.189906
  H       2.009140      0.512583     -1.763558
  H      -0.796896      2.237407      0.523921
  H      -1.675002      2.154647     -1.102332
  H      -1.878908     -0.250622     -0.891115
  H      -1.482921     -1.255729      1.370237
  H      -0.526878      0.194033      1.861361
>
15
Coordinates from ORCA-job ts_scan Relaxed Surface Scan Step 22 E -65.388588107325
  C       0.756642     -1.328007      0.474849
  C       1.606475     -0.267539     -0.105650
  O       1.585913     -0.262387     -1.447286
  O       2.225689      0.547509      0.525178
  C      -1.334700      1.631370     -0.236961
  C      -1.393944      0.314424     -0.103028
  C      -0.813403     -0.417135      1.036337
  H       1.188000     -1.731170      1.383211
  H       0.459804     -2.089889     -0.235659
  H       2.112356      0.491700     -1.736766
  H      -0.855147      2.251460      0.510706
  H      -1.763687      2.129379     -1.095916
  H      -1.872521     -0.279061     -0.874551
  H      -1.440204     -1.218491      1.415570
  H      -0.461272      0.227836      1.835274
>
15
Coordinates from ORCA-job ts_scan Relaxed Surface Scan Step 23 E -65.401667284636
  C       0.701896     -1.298285      0.459740
  C       1.612901     -0.269575     -0.100044
  O       1.649871     -0.279786     -1.440593
  O       2.235571      0.526908      0.549276
  C      -1.384085      1.625687     -0.228615
  C      -1.390172      0.307894     -0.099040
  C      -0.758598     -0.412639      1.027709
  H       1.140367     -1.755014      1.340319
  H       0.395038     -2.034604     -0.274450
  H       2.218797      0.448435     -1.716013
  H      -0.913808      2.261354      0.511942
  H      -1.848327      2.110212     -1.076949
  H      -1.862143     -0.299812     -0.864142
  H      -1.396743     -1.185174      1.449317
  H      -0.400566      0.254400      1.806851
