srun: Job 662083 step creation temporarily disabled, retrying (Requested nodes are busy)
srun: Step created for StepId=662083.33

 *******************************************************************************
 *                                                                             *
 *  --------------------------------                                           *
 *   Amsterdam Modeling Suite (AMS)              2026.103                      *
 *  --------------------------------                                           *
 *                                               r260501 2026-05-01 873454b5   *
 *                                                                             *
 *                                                                             *
 *                              =================                              *
 *                              |               |                              *
 *                              |     A M S     |                              *
 *                              |               |                              *
 *                              =================                              *
 *                                                                             *
 *                                                                             *
 *   Online information and documentation:  https://www.scm.com/support/       *
 *   E-mail:  support@scm.com   info@scm.com                                   *
 *                                                                             *
 *   Scientific publications using AMS results must be properly referenced     *
 *   See the User Manuals (or the web site) for recommended citations          *
 *   The terms and conditions of the End User License Agreement apply to       *
 *   the use of AMS, https://www.scm.com/license-terms/                        *
 *                                                                             *
 **********************  x86_64_linux_intel / intelmpi  ************************
 
 Licensed to: Jong-June Jeon / University of Seoul 2026-06-02 13:44:15
 SCM User ID: u30731
  
 AMS 2026.103  RunTime: Jun03-2026 00:02:15  ShM Nodes: 1  Procs: 1

 AMS jobname: c2_fragB_ts
 AMS jobid  : 1502019246

 Start   directory: /gpfs/home1/yeseo1ee/projects/eda-asm-prediction/ADF_800/adf_outputs/batch_000/dipolar_000225/
 Results directory: /gpfs/home1/yeseo1ee/projects/eda-asm-prediction/ADF_800/adf_outputs/batch_000/dipolar_000225/c2_fragB_ts.results/
 Scratch directory: /tmp/amstmp_c2_fragB_ts_kid0.1502019246/

 RNG seed: -986004617 247931420 -429029423 601730436 978378087 -1974865412 -663923001 -266829933



                      ************************************************************************
                      *  ADF 2026.103  RunTime: Jun03-2026 00:02:15  ShM Nodes: 1  Procs: 1  *
                      ************************************************************************
  

       ****************************
       * SINGLE POINT CALCULATION *
       ****************************

--------
Geometry
--------
Formula: C9H13ClO
Atoms
  Index Symbol   x (angstrom)   y (angstrom)   z (angstrom)
      1      C     0.61878000     3.62203000    -0.14939000
      2      O     0.25857000     2.27491000    -0.44585000
      3      C     0.38952000     1.32804000     0.53456000
      4     Cl    -0.95718000     1.70123000     1.91020000
      5      C     1.73726000     1.34109000     1.26471000
      6      C     2.01692000     0.19532000     2.25046000
      7      C     2.68473000    -1.09567000     1.70544000
      8      C     1.79995000    -2.34776000     1.57331000
      9      C     0.98701000    -2.45933000     0.26665000
     10      C     0.31380000    -1.19561000    -0.00712000
     11      C     0.04566000     0.00696000     0.01418000
     12      H     0.25535000     4.22580000    -0.99081000
     13      H     1.70887000     3.74334000    -0.06082000
     14      H     0.12983000     3.95708000     0.77852000
     15      H     2.50012000     1.34595000     0.46654000
     16      H     1.82086000     2.30148000     1.79129000
     17      H     2.69043000     0.61524000     3.01272000
     18      H     1.08774000    -0.05368000     2.78842000
     19      H     3.49870000    -1.35698000     2.39948000
     20      H     3.17780000    -0.88640000     0.73974000
     21      H     1.10577000    -2.38867000     2.42953000
     22      H     2.43068000    -3.24886000     1.63919000
     23      H     1.65413000    -2.69194000    -0.58199000
     24      H     0.26823000    -3.29025000     0.33239000

Total System Charge              0.00000


----------------
ADF Engine Input
----------------
 
   Basis
     Type TZ2P
     Core None
   End
   XC
     GGA BLYP
     Dispersion GRIMME3 BJDAMP
   End
   Symmetry NOSYM
   NumericalQuality Normal
   Unrestricted No
   SCF
     Iterations 200
     Converge 1.0e-6
   End
   Save TAPE21
 

 Title: *** (NO TITLE) ***

 *** adf ***



 ===========================
 A T T A C H E D   F I L E S
 ===========================
  



 ===============================
 M O D E L   P A R A M E T E R S
 ===============================
  
 DENSITY FUNCTIONAL POTENTIAL (scf)
    LDA:                               Exchange only                           == Not Default ==
    Gradient Corrections:              Becke88 LYP                             == Not Default ==

 SPIN  (restricted / unrestr.)
    Molecule:                          Restricted                               
    Fragments:                         Restricted                               

 OTHER ASPECTS
    Relativistic Corrections:          scalar (ZORA,MAPA)                       

    Nuclear Charge Density Model:      Point Charge Nuclei                      
    Core Treatment:                    Frozen Orbital(s)                        

    Hyperfine or Zeeman Interaction:   ---                                      

 Settings for Grimme D3 dispersion correction

      damping                        BJ
      s6                          1.000
      s8                          2.700
      a1                          0.430
      a2                          4.236

 Other (technical) parameters

      alpha                      14.000
      version                         4
 


 Fragment File(s)
 ----------------
 C:
         file : /gpfs/home1/yeseo1ee/projects/eda-asm-prediction/ADF_800/adf_outputs/batch_000/dipolar_000225/c2_fragB_ts.results/t21.50BA88D5.C
         jobid: 0
         title: Carbon (TZ2P)
 O:
         file : /gpfs/home1/yeseo1ee/projects/eda-asm-prediction/ADF_800/adf_outputs/batch_000/dipolar_000225/c2_fragB_ts.results/t21.6E90ABAE.O
         jobid: 0
         title: Oxygen (TZ2P)
 Cl:
         file : /gpfs/home1/yeseo1ee/projects/eda-asm-prediction/ADF_800/adf_outputs/batch_000/dipolar_000225/c2_fragB_ts.results/t21.3FD35465.Cl
         jobid: 0
         title: Chlorine (TZ2P)
 H:
         file : /gpfs/home1/yeseo1ee/projects/eda-asm-prediction/ADF_800/adf_outputs/batch_000/dipolar_000225/c2_fragB_ts.results/t21.6F35CCAB.H
         jobid: 0
         title: Hydrogen (TZ2P)



 ===============
 G E O M E T R Y  ***  3D  Molecule  ***
 ===============
  

 ATOMS
 =====                            X Y Z                    CHARGE
                                (Angstrom)             Nucl     +Core       At.Mass
                       --------------------------    ----------------       -------
    1  C               0.6188    3.6220   -0.1494      6.00      6.00       12.0000
    2  O               0.2586    2.2749   -0.4459      8.00      8.00       15.9949
    3  C               0.3895    1.3280    0.5346      6.00      6.00       12.0000
    4  Cl             -0.9572    1.7012    1.9102     17.00     17.00       34.9689
    5  C               1.7373    1.3411    1.2647      6.00      6.00       12.0000
    6  C               2.0169    0.1953    2.2505      6.00      6.00       12.0000
    7  C               2.6847   -1.0957    1.7054      6.00      6.00       12.0000
    8  C               1.7999   -2.3478    1.5733      6.00      6.00       12.0000
    9  C               0.9870   -2.4593    0.2666      6.00      6.00       12.0000
   10  C               0.3138   -1.1956   -0.0071      6.00      6.00       12.0000
   11  C               0.0457    0.0070    0.0142      6.00      6.00       12.0000
   12  H               0.2554    4.2258   -0.9908      1.00      1.00        1.0078
   13  H               1.7089    3.7433   -0.0608      1.00      1.00        1.0078
   14  H               0.1298    3.9571    0.7785      1.00      1.00        1.0078
   15  H               2.5001    1.3459    0.4665      1.00      1.00        1.0078
   16  H               1.8209    2.3015    1.7913      1.00      1.00        1.0078
   17  H               2.6904    0.6152    3.0127      1.00      1.00        1.0078
   18  H               1.0877   -0.0537    2.7884      1.00      1.00        1.0078
   19  H               3.4987   -1.3570    2.3995      1.00      1.00        1.0078
   20  H               3.1778   -0.8864    0.7397      1.00      1.00        1.0078
   21  H               1.1058   -2.3887    2.4295      1.00      1.00        1.0078
   22  H               2.4307   -3.2489    1.6392      1.00      1.00        1.0078
   23  H               1.6541   -2.6919   -0.5820      1.00      1.00        1.0078
   24  H               0.2682   -3.2902    0.3324      1.00      1.00        1.0078


 FRAGMENTS
 =========                                     Atoms in this Fragment     Cart. coord.s (Angstrom)
                                               -------------------------------------------------------
    1  C                                                 1  C            0.6188    3.6220   -0.1494
    2  C                                                 3  C            0.3895    1.3280    0.5346
    3  C                                                 5  C            1.7373    1.3411    1.2647
    4  C                                                 6  C            2.0169    0.1953    2.2505
    5  C                                                 7  C            2.6847   -1.0957    1.7054
    6  C                                                 8  C            1.7999   -2.3478    1.5733
    7  C                                                 9  C            0.9870   -2.4593    0.2666
    8  C                                                10  C            0.3138   -1.1956   -0.0071
    9  C                                                11  C            0.0457    0.0070    0.0142
   10  O                                                 2  O            0.2586    2.2749   -0.4459
   11  Cl                                                4  Cl          -0.9572    1.7012    1.9102
   12  H                                                12  H            0.2554    4.2258   -0.9908
   13  H                                                13  H            1.7089    3.7433   -0.0608
   14  H                                                14  H            0.1298    3.9571    0.7785
   15  H                                                15  H            2.5001    1.3459    0.4665
   16  H                                                16  H            1.8209    2.3015    1.7913
   17  H                                                17  H            2.6904    0.6152    3.0127
   18  H                                                18  H            1.0877   -0.0537    2.7884
   19  H                                                19  H            3.4987   -1.3570    2.3995
   20  H                                                20  H            3.1778   -0.8864    0.7397
   21  H                                                21  H            1.1058   -2.3887    2.4295
   22  H                                                22  H            2.4307   -3.2489    1.6392
   23  H                                                23  H            1.6541   -2.6919   -0.5820
   24  H                                                24  H            0.2682   -3.2902    0.3324



 =====================================
 S Y M M E T R Y ,   E L E C T R O N S
 =====================================
  
 Symmetry: NOSYM

 Irreducible Representations, including subspecies
 -------------------------------------------------
 A


 Configuration of Valence Electrons
 ==================================
 ( determined in the SCF procedure )

 Total:   92

 Net Charge: 0 (Nuclei minus Electrons)

 Aufbau principle for MO occupations will be applied through SCF cycle no.     100
 Thereafter, the program will assign electrons to MOs that are spatially
 similar to the occupied MOs in a "reference" cycle ("KeepOrbitals").
 The reference cycle is always the PREVIOUS cycle: it will evolve with
 the SCF procedure.
 ***************************************************************************************************



                                      ****************************************
                                      *  B U I L D : (Fragments, Functions)  *
                                      ****************************************
  



 =======
 S F O s  ***  (Symmetrized Fragment Orbitals)  ***
 =======
  
 SFOs are linear combinations of (valence) Fragment Orbitals (FOs), such that the SFOs transform as the
 irreducible representations of the (molecular) symmetry group. Each SFO is therefore characterized by
 an irrep of the molecule and by a few (or only one) generating FOs.
 The SFOs constitute a symmetry-adapted basis for the Fock matrix. The MO eigenvector coefficients in
 this basis provide a direct interpretation of the MOs in terms of Frontier Orbital Theory.

 The SFOs are combined with auxiliary Core Functions (CFs) to ensure orthogonalization on the (frozen)
 Core Orbitals (COs). The Core-orthogonalized SFOs (CSFOs) constitute the true Fock basis.

 The FOs, and hence also the (C)SFOs are combinations of the elementary basis functions (BAS). The basis
 functions that participate in the description of the SFOs depend on the irrep. The indices of the
 involved functions are printed below for each irrep.
 (The complete list of primitive basis functions is printed in another section)

 Total nr. of (C)SFOs (summation over all irreps) :   437

 NOTE: a (C)SFO that is defined as a combination of more than one FO is usually NOT normalized.



                                       === A ===
 Nr. of SFOs :  437
 Cartesian basis functions that participate in this irrep (total number =   494) :
      1     2     3     4     5     6     9    12     7    10
     13     8    11    14    15    16    17    18    19    20
     21    22    23    24    25    26    27    28    29    30
     31    32    33    34    35    36    39    42    37    40
     43    38    41    44    45    46    47    48    49    50
     51    52    53    54    55    56    57    58    59    60
     61    62    63    64    65    66    69    72    67    70
     73    68    71    74    75    76    77    78    79    80
     81    82    83    84    85    86    87    88    89    90
     91    92    93    94    95    96    99   102    97   100
    103    98   101   104   105   106   107   108   109   110
    111   112   113   114   115   116   117   118   119   120
    121   122   123   124   125   126   129   132   127   130
    133   128   131   134   135   136   137   138   139   140
    141   142   143   144   145   146   147   148   149   150
    151   152   153   154   155   156   159   162   157   160
    163   158   161   164   165   166   167   168   169   170
    171   172   173   174   175   176   177   178   179   180
    181   182   183   184   185   186   189   192   187   190
    193   188   191   194   195   196   197   198   199   200
    201   202   203   204   205   206   207   208   209   210
    211   212   213   214   215   216   219   222   217   220
    223   218   221   224   225   226   227   228   229   230
    231   232   233   234   235   236   237   238   239   240
    241   242   243   244   245   246   249   252   247   250
    253   248   251   254   255   256   257   258   259   260
    261   262   263   264   265   266   267   268   269   270
    271   272   273   274   275   276   279   282   277   280
    283   278   281   284   285   286   287   288   289   290
    291   292   293   294   295   296   297   298   299   300
    301   302   303   304   311   312   313   305   308   314
    317   320   306   309   315   318   321   307   310   316
    319   322   323   324   325   326   327   328   329   330
    331   332   333   334   335   336   337   338   339   340
    341   342   343   344   345   346   347   348   349   350
    351   352   353   354   355   356   357   358   359   360
    361   362   363   364   365   366   367   368   369   370
    371   372   373   374   375   376   377   378   379   380
    381   382   383   384   385   386   387   388   389   390
    391   392   393   394   395   396   397   398   399   400
    401   402   403   404   405   406   407   408   409   410
    411   412   413   414   415   416   417   418   419   420
    421   422   423   424   425   426   427   428   429   430
    431   432   433   434   435   436   437   438   439   440
    441   442   443   444   445   446   447   448   449   450
    451   452   453   454   455   456   457   458   459   460
    461   462   463   464   465   466   467   468   469   470
    471   472   473   474   475   476   477   478   479   480
    481   482   483   484   485   486   487   488   489   490
    491   492   493   494

    SFO  (index         Fragment          Generating    Expansion in Fragment Orbitals
  indx  incl.CFs)   Occup   Orb.Energy   FragmentType  Coeff.   Orbital     on Fragment
 --------------------------------------------------------------------------------------
     1       1      2.000     -10.066 au  C             1.00      1 S               1
                        (    -273.921 eV)
     2       2      2.000      -0.501 au  C             1.00      2 S               1
                        (     -13.620 eV)
     3       3       --         0.373 au  C             1.00      3 S               1
                        (      10.158 eV)
     4       4       --         5.405 au  C             1.00      4 S               1
                        (     147.073 eV)
     5       5       --        49.848 au  C             1.00      5 S               1
                        (    1356.422 eV)
     6       6      0.667      -0.193 au  C             1.00      1 P:x             1
                        (      -5.239 eV)
     7       7       --         0.169 au  C             1.00      2 P:x             1
                        (       4.589 eV)
     8       8       --         2.013 au  C             1.00      3 P:x             1
                        (      54.789 eV)
     9       9      0.667      -0.193 au  C             1.00      1 P:y             1
                        (      -5.239 eV)
    10      10       --         0.169 au  C             1.00      2 P:y             1
                        (       4.589 eV)
    11      11       --         2.013 au  C             1.00      3 P:y             1
                        (      54.789 eV)
    12      12      0.667      -0.193 au  C             1.00      1 P:z             1
                        (      -5.239 eV)
    13      13       --         0.169 au  C             1.00      2 P:z             1
                        (       4.589 eV)
    14      14       --         2.013 au  C             1.00      3 P:z             1
                        (      54.789 eV)
    15      15       --         1.243 au  C             1.00      1 D:z2            1
                        (      33.824 eV)
    16      16       --         1.243 au  C             1.00      1 D:x2-y2         1
                        (      33.824 eV)
    17      17       --         1.243 au  C             1.00      1 D:xy            1
                        (      33.824 eV)
    18      18       --         1.243 au  C             1.00      1 D:xz            1
                        (      33.824 eV)
    19      19       --         1.243 au  C             1.00      1 D:yz            1
                        (      33.824 eV)
    20      20       --         4.016 au  C             1.00      1 F:z3            1
                        (     109.271 eV)
    21      21       --         4.016 au  C             1.00      1 F:z             1
                        (     109.271 eV)
    22      22       --         4.016 au  C             1.00      1 F:xyz           1
                        (     109.271 eV)
    23      23       --         4.016 au  C             1.00      1 F:z2x           1
                        (     109.271 eV)
    24      24       --         4.016 au  C             1.00      1 F:z2y           1
                        (     109.271 eV)
    25      25       --         4.016 au  C             1.00      1 F:x             1
                        (     109.271 eV)
    26      26       --         4.016 au  C             1.00      1 F:y             1
                        (     109.271 eV)
    27      27      2.000     -10.066 au  C             1.00      1 S               2
                        (    -273.921 eV)
    28      28      2.000      -0.501 au  C             1.00      2 S               2
                        (     -13.620 eV)
    29      29       --         0.373 au  C             1.00      3 S               2
                        (      10.158 eV)
    30      30       --         5.405 au  C             1.00      4 S               2
                        (     147.073 eV)
    31      31       --        49.848 au  C             1.00      5 S               2
                        (    1356.422 eV)
    32      32      0.667      -0.193 au  C             1.00      1 P:x             2
                        (      -5.239 eV)
    33      33       --         0.169 au  C             1.00      2 P:x             2
                        (       4.589 eV)
    34      34       --         2.013 au  C             1.00      3 P:x             2
                        (      54.789 eV)
    35      35      0.667      -0.193 au  C             1.00      1 P:y             2
                        (      -5.239 eV)
    36      36       --         0.169 au  C             1.00      2 P:y             2
                        (       4.589 eV)
    37      37       --         2.013 au  C             1.00      3 P:y             2
                        (      54.789 eV)
    38      38      0.667      -0.193 au  C             1.00      1 P:z             2
                        (      -5.239 eV)
    39      39       --         0.169 au  C             1.00      2 P:z             2
                        (       4.589 eV)
    40      40       --         2.013 au  C             1.00      3 P:z             2
                        (      54.789 eV)
    41      41       --         1.243 au  C             1.00      1 D:z2            2
                        (      33.824 eV)
    42      42       --         1.243 au  C             1.00      1 D:x2-y2         2
                        (      33.824 eV)
    43      43       --         1.243 au  C             1.00      1 D:xy            2
                        (      33.824 eV)
    44      44       --         1.243 au  C             1.00      1 D:xz            2
                        (      33.824 eV)
    45      45       --         1.243 au  C             1.00      1 D:yz            2
                        (      33.824 eV)
    46      46       --         4.016 au  C             1.00      1 F:z3            2
                        (     109.271 eV)
    47      47       --         4.016 au  C             1.00      1 F:z             2
                        (     109.271 eV)
    48      48       --         4.016 au  C             1.00      1 F:xyz           2
                        (     109.271 eV)
    49      49       --         4.016 au  C             1.00      1 F:z2x           2
                        (     109.271 eV)
    50      50       --         4.016 au  C             1.00      1 F:z2y           2
                        (     109.271 eV)
    51      51       --         4.016 au  C             1.00      1 F:x             2
                        (     109.271 eV)
    52      52       --         4.016 au  C             1.00      1 F:y             2
                        (     109.271 eV)
    53      53      2.000     -10.066 au  C             1.00      1 S               3
                        (    -273.921 eV)
    54      54      2.000      -0.501 au  C             1.00      2 S               3
                        (     -13.620 eV)
    55      55       --         0.373 au  C             1.00      3 S               3
                        (      10.158 eV)
    56      56       --         5.405 au  C             1.00      4 S               3
                        (     147.073 eV)
    57      57       --        49.848 au  C             1.00      5 S               3
                        (    1356.422 eV)
    58      58      0.667      -0.193 au  C             1.00      1 P:x             3
                        (      -5.239 eV)
    59      59       --         0.169 au  C             1.00      2 P:x             3
                        (       4.589 eV)
    60      60       --         2.013 au  C             1.00      3 P:x             3
                        (      54.789 eV)
    61      61      0.667      -0.193 au  C             1.00      1 P:y             3
                        (      -5.239 eV)
    62      62       --         0.169 au  C             1.00      2 P:y             3
                        (       4.589 eV)
    63      63       --         2.013 au  C             1.00      3 P:y             3
                        (      54.789 eV)
    64      64      0.667      -0.193 au  C             1.00      1 P:z             3
                        (      -5.239 eV)
    65      65       --         0.169 au  C             1.00      2 P:z             3
                        (       4.589 eV)
    66      66       --         2.013 au  C             1.00      3 P:z             3
                        (      54.789 eV)
    67      67       --         1.243 au  C             1.00      1 D:z2            3
                        (      33.824 eV)
    68      68       --         1.243 au  C             1.00      1 D:x2-y2         3
                        (      33.824 eV)
    69      69       --         1.243 au  C             1.00      1 D:xy            3
                        (      33.824 eV)
    70      70       --         1.243 au  C             1.00      1 D:xz            3
                        (      33.824 eV)
    71      71       --         1.243 au  C             1.00      1 D:yz            3
                        (      33.824 eV)
    72      72       --         4.016 au  C             1.00      1 F:z3            3
                        (     109.271 eV)
    73      73       --         4.016 au  C             1.00      1 F:z             3
                        (     109.271 eV)
    74      74       --         4.016 au  C             1.00      1 F:xyz           3
                        (     109.271 eV)
    75      75       --         4.016 au  C             1.00      1 F:z2x           3
                        (     109.271 eV)
    76      76       --         4.016 au  C             1.00      1 F:z2y           3
                        (     109.271 eV)
    77      77       --         4.016 au  C             1.00      1 F:x             3
                        (     109.271 eV)
    78      78       --         4.016 au  C             1.00      1 F:y             3
                        (     109.271 eV)
    79      79      2.000     -10.066 au  C             1.00      1 S               4
                        (    -273.921 eV)
    80      80      2.000      -0.501 au  C             1.00      2 S               4
                        (     -13.620 eV)
    81      81       --         0.373 au  C             1.00      3 S               4
                        (      10.158 eV)
    82      82       --         5.405 au  C             1.00      4 S               4
                        (     147.073 eV)
    83      83       --        49.848 au  C             1.00      5 S               4
                        (    1356.422 eV)
    84      84      0.667      -0.193 au  C             1.00      1 P:x             4
                        (      -5.239 eV)
    85      85       --         0.169 au  C             1.00      2 P:x             4
                        (       4.589 eV)
    86      86       --         2.013 au  C             1.00      3 P:x             4
                        (      54.789 eV)
    87      87      0.667      -0.193 au  C             1.00      1 P:y             4
                        (      -5.239 eV)
    88      88       --         0.169 au  C             1.00      2 P:y             4
                        (       4.589 eV)
    89      89       --         2.013 au  C             1.00      3 P:y             4
                        (      54.789 eV)
    90      90      0.667      -0.193 au  C             1.00      1 P:z             4
                        (      -5.239 eV)
    91      91       --         0.169 au  C             1.00      2 P:z             4
                        (       4.589 eV)
    92      92       --         2.013 au  C             1.00      3 P:z             4
                        (      54.789 eV)
    93      93       --         1.243 au  C             1.00      1 D:z2            4
                        (      33.824 eV)
    94      94       --         1.243 au  C             1.00      1 D:x2-y2         4
                        (      33.824 eV)
    95      95       --         1.243 au  C             1.00      1 D:xy            4
                        (      33.824 eV)
    96      96       --         1.243 au  C             1.00      1 D:xz            4
                        (      33.824 eV)
    97      97       --         1.243 au  C             1.00      1 D:yz            4
                        (      33.824 eV)
    98      98       --         4.016 au  C             1.00      1 F:z3            4
                        (     109.271 eV)
    99      99       --         4.016 au  C             1.00      1 F:z             4
                        (     109.271 eV)
   100     100       --         4.016 au  C             1.00      1 F:xyz           4
                        (     109.271 eV)
   101     101       --         4.016 au  C             1.00      1 F:z2x           4
                        (     109.271 eV)
   102     102       --         4.016 au  C             1.00      1 F:z2y           4
                        (     109.271 eV)
   103     103       --         4.016 au  C             1.00      1 F:x             4
                        (     109.271 eV)
   104     104       --         4.016 au  C             1.00      1 F:y             4
                        (     109.271 eV)
   105     105      2.000     -10.066 au  C             1.00      1 S               5
                        (    -273.921 eV)
   106     106      2.000      -0.501 au  C             1.00      2 S               5
                        (     -13.620 eV)
   107     107       --         0.373 au  C             1.00      3 S               5
                        (      10.158 eV)
   108     108       --         5.405 au  C             1.00      4 S               5
                        (     147.073 eV)
   109     109       --        49.848 au  C             1.00      5 S               5
                        (    1356.422 eV)
   110     110      0.667      -0.193 au  C             1.00      1 P:x             5
                        (      -5.239 eV)
   111     111       --         0.169 au  C             1.00      2 P:x             5
                        (       4.589 eV)
   112     112       --         2.013 au  C             1.00      3 P:x             5
                        (      54.789 eV)
   113     113      0.667      -0.193 au  C             1.00      1 P:y             5
                        (      -5.239 eV)
   114     114       --         0.169 au  C             1.00      2 P:y             5
                        (       4.589 eV)
   115     115       --         2.013 au  C             1.00      3 P:y             5
                        (      54.789 eV)
   116     116      0.667      -0.193 au  C             1.00      1 P:z             5
                        (      -5.239 eV)
   117     117       --         0.169 au  C             1.00      2 P:z             5
                        (       4.589 eV)
   118     118       --         2.013 au  C             1.00      3 P:z             5
                        (      54.789 eV)
   119     119       --         1.243 au  C             1.00      1 D:z2            5
                        (      33.824 eV)
   120     120       --         1.243 au  C             1.00      1 D:x2-y2         5
                        (      33.824 eV)
   121     121       --         1.243 au  C             1.00      1 D:xy            5
                        (      33.824 eV)
   122     122       --         1.243 au  C             1.00      1 D:xz            5
                        (      33.824 eV)
   123     123       --         1.243 au  C             1.00      1 D:yz            5
                        (      33.824 eV)
   124     124       --         4.016 au  C             1.00      1 F:z3            5
                        (     109.271 eV)
   125     125       --         4.016 au  C             1.00      1 F:z             5
                        (     109.271 eV)
   126     126       --         4.016 au  C             1.00      1 F:xyz           5
                        (     109.271 eV)
   127     127       --         4.016 au  C             1.00      1 F:z2x           5
                        (     109.271 eV)
   128     128       --         4.016 au  C             1.00      1 F:z2y           5
                        (     109.271 eV)
   129     129       --         4.016 au  C             1.00      1 F:x             5
                        (     109.271 eV)
   130     130       --         4.016 au  C             1.00      1 F:y             5
                        (     109.271 eV)
   131     131      2.000     -10.066 au  C             1.00      1 S               6
                        (    -273.921 eV)
   132     132      2.000      -0.501 au  C             1.00      2 S               6
                        (     -13.620 eV)
   133     133       --         0.373 au  C             1.00      3 S               6
                        (      10.158 eV)
   134     134       --         5.405 au  C             1.00      4 S               6
                        (     147.073 eV)
   135     135       --        49.848 au  C             1.00      5 S               6
                        (    1356.422 eV)
   136     136      0.667      -0.193 au  C             1.00      1 P:x             6
                        (      -5.239 eV)
   137     137       --         0.169 au  C             1.00      2 P:x             6
                        (       4.589 eV)
   138     138       --         2.013 au  C             1.00      3 P:x             6
                        (      54.789 eV)
   139     139      0.667      -0.193 au  C             1.00      1 P:y             6
                        (      -5.239 eV)
   140     140       --         0.169 au  C             1.00      2 P:y             6
                        (       4.589 eV)
   141     141       --         2.013 au  C             1.00      3 P:y             6
                        (      54.789 eV)
   142     142      0.667      -0.193 au  C             1.00      1 P:z             6
                        (      -5.239 eV)
   143     143       --         0.169 au  C             1.00      2 P:z             6
                        (       4.589 eV)
   144     144       --         2.013 au  C             1.00      3 P:z             6
                        (      54.789 eV)
   145     145       --         1.243 au  C             1.00      1 D:z2            6
                        (      33.824 eV)
   146     146       --         1.243 au  C             1.00      1 D:x2-y2         6
                        (      33.824 eV)
   147     147       --         1.243 au  C             1.00      1 D:xy            6
                        (      33.824 eV)
   148     148       --         1.243 au  C             1.00      1 D:xz            6
                        (      33.824 eV)
   149     149       --         1.243 au  C             1.00      1 D:yz            6
                        (      33.824 eV)
   150     150       --         4.016 au  C             1.00      1 F:z3            6
                        (     109.271 eV)
   151     151       --         4.016 au  C             1.00      1 F:z             6
                        (     109.271 eV)
   152     152       --         4.016 au  C             1.00      1 F:xyz           6
                        (     109.271 eV)
   153     153       --         4.016 au  C             1.00      1 F:z2x           6
                        (     109.271 eV)
   154     154       --         4.016 au  C             1.00      1 F:z2y           6
                        (     109.271 eV)
   155     155       --         4.016 au  C             1.00      1 F:x             6
                        (     109.271 eV)
   156     156       --         4.016 au  C             1.00      1 F:y             6
                        (     109.271 eV)
   157     157      2.000     -10.066 au  C             1.00      1 S               7
                        (    -273.921 eV)
   158     158      2.000      -0.501 au  C             1.00      2 S               7
                        (     -13.620 eV)
   159     159       --         0.373 au  C             1.00      3 S               7
                        (      10.158 eV)
   160     160       --         5.405 au  C             1.00      4 S               7
                        (     147.073 eV)
   161     161       --        49.848 au  C             1.00      5 S               7
                        (    1356.422 eV)
   162     162      0.667      -0.193 au  C             1.00      1 P:x             7
                        (      -5.239 eV)
   163     163       --         0.169 au  C             1.00      2 P:x             7
                        (       4.589 eV)
   164     164       --         2.013 au  C             1.00      3 P:x             7
                        (      54.789 eV)
   165     165      0.667      -0.193 au  C             1.00      1 P:y             7
                        (      -5.239 eV)
   166     166       --         0.169 au  C             1.00      2 P:y             7
                        (       4.589 eV)
   167     167       --         2.013 au  C             1.00      3 P:y             7
                        (      54.789 eV)
   168     168      0.667      -0.193 au  C             1.00      1 P:z             7
                        (      -5.239 eV)
   169     169       --         0.169 au  C             1.00      2 P:z             7
                        (       4.589 eV)
   170     170       --         2.013 au  C             1.00      3 P:z             7
                        (      54.789 eV)
   171     171       --         1.243 au  C             1.00      1 D:z2            7
                        (      33.824 eV)
   172     172       --         1.243 au  C             1.00      1 D:x2-y2         7
                        (      33.824 eV)
   173     173       --         1.243 au  C             1.00      1 D:xy            7
                        (      33.824 eV)
   174     174       --         1.243 au  C             1.00      1 D:xz            7
                        (      33.824 eV)
   175     175       --         1.243 au  C             1.00      1 D:yz            7
                        (      33.824 eV)
   176     176       --         4.016 au  C             1.00      1 F:z3            7
                        (     109.271 eV)
   177     177       --         4.016 au  C             1.00      1 F:z             7
                        (     109.271 eV)
   178     178       --         4.016 au  C             1.00      1 F:xyz           7
                        (     109.271 eV)
   179     179       --         4.016 au  C             1.00      1 F:z2x           7
                        (     109.271 eV)
   180     180       --         4.016 au  C             1.00      1 F:z2y           7
                        (     109.271 eV)
   181     181       --         4.016 au  C             1.00      1 F:x             7
                        (     109.271 eV)
   182     182       --         4.016 au  C             1.00      1 F:y             7
                        (     109.271 eV)
   183     183      2.000     -10.066 au  C             1.00      1 S               8
                        (    -273.921 eV)
   184     184      2.000      -0.501 au  C             1.00      2 S               8
                        (     -13.620 eV)
   185     185       --         0.373 au  C             1.00      3 S               8
                        (      10.158 eV)
   186     186       --         5.405 au  C             1.00      4 S               8
                        (     147.073 eV)
   187     187       --        49.848 au  C             1.00      5 S               8
                        (    1356.422 eV)
   188     188      0.667      -0.193 au  C             1.00      1 P:x             8
                        (      -5.239 eV)
   189     189       --         0.169 au  C             1.00      2 P:x             8
                        (       4.589 eV)
   190     190       --         2.013 au  C             1.00      3 P:x             8
                        (      54.789 eV)
   191     191      0.667      -0.193 au  C             1.00      1 P:y             8
                        (      -5.239 eV)
   192     192       --         0.169 au  C             1.00      2 P:y             8
                        (       4.589 eV)
   193     193       --         2.013 au  C             1.00      3 P:y             8
                        (      54.789 eV)
   194     194      0.667      -0.193 au  C             1.00      1 P:z             8
                        (      -5.239 eV)
   195     195       --         0.169 au  C             1.00      2 P:z             8
                        (       4.589 eV)
   196     196       --         2.013 au  C             1.00      3 P:z             8
                        (      54.789 eV)
   197     197       --         1.243 au  C             1.00      1 D:z2            8
                        (      33.824 eV)
   198     198       --         1.243 au  C             1.00      1 D:x2-y2         8
                        (      33.824 eV)
   199     199       --         1.243 au  C             1.00      1 D:xy            8
                        (      33.824 eV)
   200     200       --         1.243 au  C             1.00      1 D:xz            8
                        (      33.824 eV)
   201     201       --         1.243 au  C             1.00      1 D:yz            8
                        (      33.824 eV)
   202     202       --         4.016 au  C             1.00      1 F:z3            8
                        (     109.271 eV)
   203     203       --         4.016 au  C             1.00      1 F:z             8
                        (     109.271 eV)
   204     204       --         4.016 au  C             1.00      1 F:xyz           8
                        (     109.271 eV)
   205     205       --         4.016 au  C             1.00      1 F:z2x           8
                        (     109.271 eV)
   206     206       --         4.016 au  C             1.00      1 F:z2y           8
                        (     109.271 eV)
   207     207       --         4.016 au  C             1.00      1 F:x             8
                        (     109.271 eV)
   208     208       --         4.016 au  C             1.00      1 F:y             8
                        (     109.271 eV)
   209     209      2.000     -10.066 au  C             1.00      1 S               9
                        (    -273.921 eV)
   210     210      2.000      -0.501 au  C             1.00      2 S               9
                        (     -13.620 eV)
   211     211       --         0.373 au  C             1.00      3 S               9
                        (      10.158 eV)
   212     212       --         5.405 au  C             1.00      4 S               9
                        (     147.073 eV)
   213     213       --        49.848 au  C             1.00      5 S               9
                        (    1356.422 eV)
   214     214      0.667      -0.193 au  C             1.00      1 P:x             9
                        (      -5.239 eV)
   215     215       --         0.169 au  C             1.00      2 P:x             9
                        (       4.589 eV)
   216     216       --         2.013 au  C             1.00      3 P:x             9
                        (      54.789 eV)
   217     217      0.667      -0.193 au  C             1.00      1 P:y             9
                        (      -5.239 eV)
   218     218       --         0.169 au  C             1.00      2 P:y             9
                        (       4.589 eV)
   219     219       --         2.013 au  C             1.00      3 P:y             9
                        (      54.789 eV)
   220     220      0.667      -0.193 au  C             1.00      1 P:z             9
                        (      -5.239 eV)
   221     221       --         0.169 au  C             1.00      2 P:z             9
                        (       4.589 eV)
   222     222       --         2.013 au  C             1.00      3 P:z             9
                        (      54.789 eV)
   223     223       --         1.243 au  C             1.00      1 D:z2            9
                        (      33.824 eV)
   224     224       --         1.243 au  C             1.00      1 D:x2-y2         9
                        (      33.824 eV)
   225     225       --         1.243 au  C             1.00      1 D:xy            9
                        (      33.824 eV)
   226     226       --         1.243 au  C             1.00      1 D:xz            9
                        (      33.824 eV)
   227     227       --         1.243 au  C             1.00      1 D:yz            9
                        (      33.824 eV)
   228     228       --         4.016 au  C             1.00      1 F:z3            9
                        (     109.271 eV)
   229     229       --         4.016 au  C             1.00      1 F:z             9
                        (     109.271 eV)
   230     230       --         4.016 au  C             1.00      1 F:xyz           9
                        (     109.271 eV)
   231     231       --         4.016 au  C             1.00      1 F:z2x           9
                        (     109.271 eV)
   232     232       --         4.016 au  C             1.00      1 F:z2y           9
                        (     109.271 eV)
   233     233       --         4.016 au  C             1.00      1 F:x             9
                        (     109.271 eV)
   234     234       --         4.016 au  C             1.00      1 F:y             9
                        (     109.271 eV)
   235     235      2.000     -18.941 au  O             1.00      1 S              10
                        (    -515.403 eV)
   236     236      2.000      -0.876 au  O             1.00      2 S              10
                        (     -23.838 eV)
   237     237       --         0.791 au  O             1.00      3 S              10
                        (      21.524 eV)
   238     238       --        13.422 au  O             1.00      4 S              10
                        (     365.226 eV)
   239     239       --       121.561 au  O             1.00      5 S              10
                        (    3307.838 eV)
   240     240      1.333      -0.331 au  O             1.00      1 P:x            10
                        (      -9.020 eV)
   241     241       --         0.347 au  O             1.00      2 P:x            10
                        (       9.437 eV)
   242     242       --         3.820 au  O             1.00      3 P:x            10
                        (     103.939 eV)
   243     243      1.333      -0.331 au  O             1.00      1 P:y            10
                        (      -9.020 eV)
   244     244       --         0.347 au  O             1.00      2 P:y            10
                        (       9.437 eV)
   245     245       --         3.820 au  O             1.00      3 P:y            10
                        (     103.939 eV)
   246     246      1.333      -0.331 au  O             1.00      1 P:z            10
                        (      -9.020 eV)
   247     247       --         0.347 au  O             1.00      2 P:z            10
                        (       9.437 eV)
   248     248       --         3.820 au  O             1.00      3 P:z            10
                        (     103.939 eV)
   249     249       --         1.071 au  O             1.00      1 D:z2           10
                        (      29.134 eV)
   250     250       --         1.071 au  O             1.00      1 D:x2-y2        10
                        (      29.134 eV)
   251     251       --         1.071 au  O             1.00      1 D:xy           10
                        (      29.134 eV)
   252     252       --         1.071 au  O             1.00      1 D:xz           10
                        (      29.134 eV)
   253     253       --         1.071 au  O             1.00      1 D:yz           10
                        (      29.134 eV)
   254     254       --         3.359 au  O             1.00      1 F:z3           10
                        (      91.410 eV)
   255     255       --         3.359 au  O             1.00      1 F:z            10
                        (      91.410 eV)
   256     256       --         3.359 au  O             1.00      1 F:xyz          10
                        (      91.410 eV)
   257     257       --         3.359 au  O             1.00      1 F:z2x          10
                        (      91.410 eV)
   258     258       --         3.359 au  O             1.00      1 F:z2y          10
                        (      91.410 eV)
   259     259       --         3.359 au  O             1.00      1 F:x            10
                        (      91.410 eV)
   260     260       --         3.359 au  O             1.00      1 F:y            10
                        (      91.410 eV)
   261     261      2.000    -101.116 au  Cl            1.00      1 S              11
                        (   -2751.516 eV)
   262     262      2.000      -9.276 au  Cl            1.00      2 S              11
                        (    -252.419 eV)
   263     263      2.000      -0.754 au  Cl            1.00      3 S              11
                        (     -20.523 eV)
   264     264       --         0.194 au  Cl            1.00      4 S              11
                        (       5.292 eV)
   265     265       --         1.998 au  Cl            1.00      5 S              11
                        (      54.377 eV)
   266     266       --        12.618 au  Cl            1.00      6 S              11
                        (     343.355 eV)
   267     267       --       205.328 au  Cl            1.00      7 S              11
                        (    5587.258 eV)
   268     268      2.000      -7.038 au  Cl            1.00      1 P:x            11
                        (    -191.503 eV)
   269     269      1.667      -0.310 au  Cl            1.00      2 P:x            11
                        (      -8.439 eV)
   270     270       --         0.226 au  Cl            1.00      3 P:x            11
                        (       6.147 eV)
   271     271       --         2.102 au  Cl            1.00      4 P:x            11
                        (      57.194 eV)
   272     272       --        18.665 au  Cl            1.00      5 P:x            11
                        (     507.904 eV)
   273     273      2.000      -7.038 au  Cl            1.00      1 P:y            11
                        (    -191.503 eV)
   274     274      1.667      -0.310 au  Cl            1.00      2 P:y            11
                        (      -8.439 eV)
   275     275       --         0.226 au  Cl            1.00      3 P:y            11
                        (       6.147 eV)
   276     276       --         2.102 au  Cl            1.00      4 P:y            11
                        (      57.194 eV)
   277     277       --        18.665 au  Cl            1.00      5 P:y            11
                        (     507.904 eV)
   278     278      2.000      -7.038 au  Cl            1.00      1 P:z            11
                        (    -191.503 eV)
   279     279      1.667      -0.310 au  Cl            1.00      2 P:z            11
                        (      -8.439 eV)
   280     280       --         0.226 au  Cl            1.00      3 P:z            11
                        (       6.147 eV)
   281     281       --         2.102 au  Cl            1.00      4 P:z            11
                        (      57.194 eV)
   282     282       --        18.665 au  Cl            1.00      5 P:z            11
                        (     507.904 eV)
   283     283       --         0.388 au  Cl            1.00      1 D:z2           11
                        (      10.568 eV)
   284     284       --         0.388 au  Cl            1.00      1 D:x2-y2        11
                        (      10.568 eV)
   285     285       --         0.388 au  Cl            1.00      1 D:xy           11
                        (      10.568 eV)
   286     286       --         0.388 au  Cl            1.00      1 D:xz           11
                        (      10.568 eV)
   287     287       --         0.388 au  Cl            1.00      1 D:yz           11
                        (      10.568 eV)
   288     288       --         1.191 au  Cl            1.00      1 F:z3           11
                        (      32.399 eV)
   289     289       --         1.191 au  Cl            1.00      1 F:z            11
                        (      32.399 eV)
   290     290       --         1.191 au  Cl            1.00      1 F:xyz          11
                        (      32.399 eV)
   291     291       --         1.191 au  Cl            1.00      1 F:z2x          11
                        (      32.399 eV)
   292     292       --         1.191 au  Cl            1.00      1 F:z2y          11
                        (      32.399 eV)
   293     293       --         1.191 au  Cl            1.00      1 F:x            11
                        (      32.399 eV)
   294     294       --         1.191 au  Cl            1.00      1 F:y            11
                        (      32.399 eV)
   295     295      1.000      -0.240 au  H             1.00      1 S              12
                        (      -6.532 eV)
   296     296       --         0.088 au  H             1.00      2 S              12
                        (       2.394 eV)
   297     297       --         1.502 au  H             1.00      3 S              12
                        (      40.869 eV)
   298     298       --         0.406 au  H             1.00      1 P:x            12
                        (      11.051 eV)
   299     299       --         0.406 au  H             1.00      1 P:y            12
                        (      11.051 eV)
   300     300       --         0.406 au  H             1.00      1 P:z            12
                        (      11.051 eV)
   301     301       --         2.569 au  H             1.00      1 D:z2           12
                        (      69.917 eV)
   302     302       --         2.569 au  H             1.00      1 D:x2-y2        12
                        (      69.917 eV)
   303     303       --         2.569 au  H             1.00      1 D:xy           12
                        (      69.917 eV)
   304     304       --         2.569 au  H             1.00      1 D:xz           12
                        (      69.917 eV)
   305     305       --         2.569 au  H             1.00      1 D:yz           12
                        (      69.917 eV)
   306     306      1.000      -0.240 au  H             1.00      1 S              13
                        (      -6.532 eV)
   307     307       --         0.088 au  H             1.00      2 S              13
                        (       2.394 eV)
   308     308       --         1.502 au  H             1.00      3 S              13
                        (      40.869 eV)
   309     309       --         0.406 au  H             1.00      1 P:x            13
                        (      11.051 eV)
   310     310       --         0.406 au  H             1.00      1 P:y            13
                        (      11.051 eV)
   311     311       --         0.406 au  H             1.00      1 P:z            13
                        (      11.051 eV)
   312     312       --         2.569 au  H             1.00      1 D:z2           13
                        (      69.917 eV)
   313     313       --         2.569 au  H             1.00      1 D:x2-y2        13
                        (      69.917 eV)
   314     314       --         2.569 au  H             1.00      1 D:xy           13
                        (      69.917 eV)
   315     315       --         2.569 au  H             1.00      1 D:xz           13
                        (      69.917 eV)
   316     316       --         2.569 au  H             1.00      1 D:yz           13
                        (      69.917 eV)
   317     317      1.000      -0.240 au  H             1.00      1 S              14
                        (      -6.532 eV)
   318     318       --         0.088 au  H             1.00      2 S              14
                        (       2.394 eV)
   319     319       --         1.502 au  H             1.00      3 S              14
                        (      40.869 eV)
   320     320       --         0.406 au  H             1.00      1 P:x            14
                        (      11.051 eV)
   321     321       --         0.406 au  H             1.00      1 P:y            14
                        (      11.051 eV)
   322     322       --         0.406 au  H             1.00      1 P:z            14
                        (      11.051 eV)
   323     323       --         2.569 au  H             1.00      1 D:z2           14
                        (      69.917 eV)
   324     324       --         2.569 au  H             1.00      1 D:x2-y2        14
                        (      69.917 eV)
   325     325       --         2.569 au  H             1.00      1 D:xy           14
                        (      69.917 eV)
   326     326       --         2.569 au  H             1.00      1 D:xz           14
                        (      69.917 eV)
   327     327       --         2.569 au  H             1.00      1 D:yz           14
                        (      69.917 eV)
   328     328      1.000      -0.240 au  H             1.00      1 S              15
                        (      -6.532 eV)
   329     329       --         0.088 au  H             1.00      2 S              15
                        (       2.394 eV)
   330     330       --         1.502 au  H             1.00      3 S              15
                        (      40.869 eV)
   331     331       --         0.406 au  H             1.00      1 P:x            15
                        (      11.051 eV)
   332     332       --         0.406 au  H             1.00      1 P:y            15
                        (      11.051 eV)
   333     333       --         0.406 au  H             1.00      1 P:z            15
                        (      11.051 eV)
   334     334       --         2.569 au  H             1.00      1 D:z2           15
                        (      69.917 eV)
   335     335       --         2.569 au  H             1.00      1 D:x2-y2        15
                        (      69.917 eV)
   336     336       --         2.569 au  H             1.00      1 D:xy           15
                        (      69.917 eV)
   337     337       --         2.569 au  H             1.00      1 D:xz           15
                        (      69.917 eV)
   338     338       --         2.569 au  H             1.00      1 D:yz           15
                        (      69.917 eV)
   339     339      1.000      -0.240 au  H             1.00      1 S              16
                        (      -6.532 eV)
   340     340       --         0.088 au  H             1.00      2 S              16
                        (       2.394 eV)
   341     341       --         1.502 au  H             1.00      3 S              16
                        (      40.869 eV)
   342     342       --         0.406 au  H             1.00      1 P:x            16
                        (      11.051 eV)
   343     343       --         0.406 au  H             1.00      1 P:y            16
                        (      11.051 eV)
   344     344       --         0.406 au  H             1.00      1 P:z            16
                        (      11.051 eV)
   345     345       --         2.569 au  H             1.00      1 D:z2           16
                        (      69.917 eV)
   346     346       --         2.569 au  H             1.00      1 D:x2-y2        16
                        (      69.917 eV)
   347     347       --         2.569 au  H             1.00      1 D:xy           16
                        (      69.917 eV)
   348     348       --         2.569 au  H             1.00      1 D:xz           16
                        (      69.917 eV)
   349     349       --         2.569 au  H             1.00      1 D:yz           16
                        (      69.917 eV)
   350     350      1.000      -0.240 au  H             1.00      1 S              17
                        (      -6.532 eV)
   351     351       --         0.088 au  H             1.00      2 S              17
                        (       2.394 eV)
   352     352       --         1.502 au  H             1.00      3 S              17
                        (      40.869 eV)
   353     353       --         0.406 au  H             1.00      1 P:x            17
                        (      11.051 eV)
   354     354       --         0.406 au  H             1.00      1 P:y            17
                        (      11.051 eV)
   355     355       --         0.406 au  H             1.00      1 P:z            17
                        (      11.051 eV)
   356     356       --         2.569 au  H             1.00      1 D:z2           17
                        (      69.917 eV)
   357     357       --         2.569 au  H             1.00      1 D:x2-y2        17
                        (      69.917 eV)
   358     358       --         2.569 au  H             1.00      1 D:xy           17
                        (      69.917 eV)
   359     359       --         2.569 au  H             1.00      1 D:xz           17
                        (      69.917 eV)
   360     360       --         2.569 au  H             1.00      1 D:yz           17
                        (      69.917 eV)
   361     361      1.000      -0.240 au  H             1.00      1 S              18
                        (      -6.532 eV)
   362     362       --         0.088 au  H             1.00      2 S              18
                        (       2.394 eV)
   363     363       --         1.502 au  H             1.00      3 S              18
                        (      40.869 eV)
   364     364       --         0.406 au  H             1.00      1 P:x            18
                        (      11.051 eV)
   365     365       --         0.406 au  H             1.00      1 P:y            18
                        (      11.051 eV)
   366     366       --         0.406 au  H             1.00      1 P:z            18
                        (      11.051 eV)
   367     367       --         2.569 au  H             1.00      1 D:z2           18
                        (      69.917 eV)
   368     368       --         2.569 au  H             1.00      1 D:x2-y2        18
                        (      69.917 eV)
   369     369       --         2.569 au  H             1.00      1 D:xy           18
                        (      69.917 eV)
   370     370       --         2.569 au  H             1.00      1 D:xz           18
                        (      69.917 eV)
   371     371       --         2.569 au  H             1.00      1 D:yz           18
                        (      69.917 eV)
   372     372      1.000      -0.240 au  H             1.00      1 S              19
                        (      -6.532 eV)
   373     373       --         0.088 au  H             1.00      2 S              19
                        (       2.394 eV)
   374     374       --         1.502 au  H             1.00      3 S              19
                        (      40.869 eV)
   375     375       --         0.406 au  H             1.00      1 P:x            19
                        (      11.051 eV)
   376     376       --         0.406 au  H             1.00      1 P:y            19
                        (      11.051 eV)
   377     377       --         0.406 au  H             1.00      1 P:z            19
                        (      11.051 eV)
   378     378       --         2.569 au  H             1.00      1 D:z2           19
                        (      69.917 eV)
   379     379       --         2.569 au  H             1.00      1 D:x2-y2        19
                        (      69.917 eV)
   380     380       --         2.569 au  H             1.00      1 D:xy           19
                        (      69.917 eV)
   381     381       --         2.569 au  H             1.00      1 D:xz           19
                        (      69.917 eV)
   382     382       --         2.569 au  H             1.00      1 D:yz           19
                        (      69.917 eV)
   383     383      1.000      -0.240 au  H             1.00      1 S              20
                        (      -6.532 eV)
   384     384       --         0.088 au  H             1.00      2 S              20
                        (       2.394 eV)
   385     385       --         1.502 au  H             1.00      3 S              20
                        (      40.869 eV)
   386     386       --         0.406 au  H             1.00      1 P:x            20
                        (      11.051 eV)
   387     387       --         0.406 au  H             1.00      1 P:y            20
                        (      11.051 eV)
   388     388       --         0.406 au  H             1.00      1 P:z            20
                        (      11.051 eV)
   389     389       --         2.569 au  H             1.00      1 D:z2           20
                        (      69.917 eV)
   390     390       --         2.569 au  H             1.00      1 D:x2-y2        20
                        (      69.917 eV)
   391     391       --         2.569 au  H             1.00      1 D:xy           20
                        (      69.917 eV)
   392     392       --         2.569 au  H             1.00      1 D:xz           20
                        (      69.917 eV)
   393     393       --         2.569 au  H             1.00      1 D:yz           20
                        (      69.917 eV)
   394     394      1.000      -0.240 au  H             1.00      1 S              21
                        (      -6.532 eV)
   395     395       --         0.088 au  H             1.00      2 S              21
                        (       2.394 eV)
   396     396       --         1.502 au  H             1.00      3 S              21
                        (      40.869 eV)
   397     397       --         0.406 au  H             1.00      1 P:x            21
                        (      11.051 eV)
   398     398       --         0.406 au  H             1.00      1 P:y            21
                        (      11.051 eV)
   399     399       --         0.406 au  H             1.00      1 P:z            21
                        (      11.051 eV)
   400     400       --         2.569 au  H             1.00      1 D:z2           21
                        (      69.917 eV)
   401     401       --         2.569 au  H             1.00      1 D:x2-y2        21
                        (      69.917 eV)
   402     402       --         2.569 au  H             1.00      1 D:xy           21
                        (      69.917 eV)
   403     403       --         2.569 au  H             1.00      1 D:xz           21
                        (      69.917 eV)
   404     404       --         2.569 au  H             1.00      1 D:yz           21
                        (      69.917 eV)
   405     405      1.000      -0.240 au  H             1.00      1 S              22
                        (      -6.532 eV)
   406     406       --         0.088 au  H             1.00      2 S              22
                        (       2.394 eV)
   407     407       --         1.502 au  H             1.00      3 S              22
                        (      40.869 eV)
   408     408       --         0.406 au  H             1.00      1 P:x            22
                        (      11.051 eV)
   409     409       --         0.406 au  H             1.00      1 P:y            22
                        (      11.051 eV)
   410     410       --         0.406 au  H             1.00      1 P:z            22
                        (      11.051 eV)
   411     411       --         2.569 au  H             1.00      1 D:z2           22
                        (      69.917 eV)
   412     412       --         2.569 au  H             1.00      1 D:x2-y2        22
                        (      69.917 eV)
   413     413       --         2.569 au  H             1.00      1 D:xy           22
                        (      69.917 eV)
   414     414       --         2.569 au  H             1.00      1 D:xz           22
                        (      69.917 eV)
   415     415       --         2.569 au  H             1.00      1 D:yz           22
                        (      69.917 eV)
   416     416      1.000      -0.240 au  H             1.00      1 S              23
                        (      -6.532 eV)
   417     417       --         0.088 au  H             1.00      2 S              23
                        (       2.394 eV)
   418     418       --         1.502 au  H             1.00      3 S              23
                        (      40.869 eV)
   419     419       --         0.406 au  H             1.00      1 P:x            23
                        (      11.051 eV)
   420     420       --         0.406 au  H             1.00      1 P:y            23
                        (      11.051 eV)
   421     421       --         0.406 au  H             1.00      1 P:z            23
                        (      11.051 eV)
   422     422       --         2.569 au  H             1.00      1 D:z2           23
                        (      69.917 eV)
   423     423       --         2.569 au  H             1.00      1 D:x2-y2        23
                        (      69.917 eV)
   424     424       --         2.569 au  H             1.00      1 D:xy           23
                        (      69.917 eV)
   425     425       --         2.569 au  H             1.00      1 D:xz           23
                        (      69.917 eV)
   426     426       --         2.569 au  H             1.00      1 D:yz           23
                        (      69.917 eV)
   427     427      1.000      -0.240 au  H             1.00      1 S              24
                        (      -6.532 eV)
   428     428       --         0.088 au  H             1.00      2 S              24
                        (       2.394 eV)
   429     429       --         1.502 au  H             1.00      3 S              24
                        (      40.869 eV)
   430     430       --         0.406 au  H             1.00      1 P:x            24
                        (      11.051 eV)
   431     431       --         0.406 au  H             1.00      1 P:y            24
                        (      11.051 eV)
   432     432       --         0.406 au  H             1.00      1 P:z            24
                        (      11.051 eV)
   433     433       --         2.569 au  H             1.00      1 D:z2           24
                        (      69.917 eV)
   434     434       --         2.569 au  H             1.00      1 D:x2-y2        24
                        (      69.917 eV)
   435     435       --         2.569 au  H             1.00      1 D:xy           24
                        (      69.917 eV)
   436     436       --         2.569 au  H             1.00      1 D:xz           24
                        (      69.917 eV)
   437     437       --         2.569 au  H             1.00      1 D:yz           24
                        (      69.917 eV)



 ================================
 (Slater-type)  F U N C T I O N S  ***  (Basis and Fit)  ***
 ================================
  

 Atom Type    1  (C)
 ==============

 Valence Basis Sets:  10
 -----------------------
   1 S    7.680000
   1 S    5.000000
   2 S    1.280000
   2 S    2.100000
   2 S    4.600000
   2 P    0.820000
   2 P    1.480000
   2 P    2.940000
   3 D    2.200000
   4 F    3.300000

 Atom Type    2  (O)
 ==============

 Valence Basis Sets:  10
 -----------------------
   1 S    9.800000
   1 S    6.800000
   2 S    7.580000
   2 S    2.880000
   2 S    1.720000
   2 P    4.080000
   2 P    2.080000
   2 P    1.120000
   3 D    2.000000
   4 F    3.000000

 Atom Type    3  (Cl)
 ==============

 Valence Basis Sets:  14
 -----------------------
   1 S   20.300000
   1 S   15.250000
   2 S    6.250000
   2 S    4.450000
   2 P    8.850000
   2 P    5.050000
   3 S    3.450000
   3 S    2.300000
   3 S    1.600000
   3 P    3.350000
   3 P    2.050000
   3 P    1.200000
   3 D    2.000000
   4 F    2.000000

 Atom Type    4  (H)
 ==============

 Valence Basis Sets:   5
 -----------------------
   1 S    0.690000
   1 S    0.920000
   1 S    1.580000
   2 P    1.250000
   3 D    2.500000


 BAS: List of all Elementary Cartesian Basis Functions
 =====================================================

 The numbering in the list below (to the right of the function characteristics) is referred
 to in print-outs of MO eigenvectors and Mulliken populations in the BAS representation
 (as contrasted to the SFO representation).

 Notes:
 1. The functions are characterized by a polynomial prefactor (powers of x,y,z and r) and
    an exponential decay factor alpha.
 2. Since the basis sets are specific for an atom TYPE, the individual functions occur on
    all atoms of that type.
 3. The word 'Core' in the left margin signals that it is a Core Function (CF) : not a
    degree of freedom in the valence set, but only used to ensure orthogonalization of
    the other valence basis functions on the frozen Core Orbitals.


 (power of) X  Y  Z  R     Alpha  on Atom
            ==========     =====     ==========

 C                                    1    2    3    4    5    6    7    8    9
                                  ---------------------------------------------------------------------------
            0  0  0  0     7.680      1   31   61   91  121  151  181  211  241
            0  0  0  0     5.000      2   32   62   92  122  152  182  212  242
            0  0  0  1     1.280      3   33   63   93  123  153  183  213  243
            0  0  0  1     2.100      4   34   64   94  124  154  184  214  244
            0  0  0  1     4.600      5   35   65   95  125  155  185  215  245
            1  0  0  0     0.820      6   36   66   96  126  156  186  216  246
            0  1  0  0     0.820      7   37   67   97  127  157  187  217  247
            0  0  1  0     0.820      8   38   68   98  128  158  188  218  248
            1  0  0  0     1.480      9   39   69   99  129  159  189  219  249
            0  1  0  0     1.480     10   40   70  100  130  160  190  220  250
            0  0  1  0     1.480     11   41   71  101  131  161  191  221  251
            1  0  0  0     2.940     12   42   72  102  132  162  192  222  252
            0  1  0  0     2.940     13   43   73  103  133  163  193  223  253
            0  0  1  0     2.940     14   44   74  104  134  164  194  224  254
            2  0  0  0     2.200     15   45   75  105  135  165  195  225  255
            1  1  0  0     2.200     16   46   76  106  136  166  196  226  256
            1  0  1  0     2.200     17   47   77  107  137  167  197  227  257
            0  2  0  0     2.200     18   48   78  108  138  168  198  228  258
            0  1  1  0     2.200     19   49   79  109  139  169  199  229  259
            0  0  2  0     2.200     20   50   80  110  140  170  200  230  260
            3  0  0  0     3.300     21   51   81  111  141  171  201  231  261
            2  1  0  0     3.300     22   52   82  112  142  172  202  232  262
            2  0  1  0     3.300     23   53   83  113  143  173  203  233  263
            1  2  0  0     3.300     24   54   84  114  144  174  204  234  264
            1  1  1  0     3.300     25   55   85  115  145  175  205  235  265
            1  0  2  0     3.300     26   56   86  116  146  176  206  236  266
            0  3  0  0     3.300     27   57   87  117  147  177  207  237  267
            0  2  1  0     3.300     28   58   88  118  148  178  208  238  268
            0  1  2  0     3.300     29   59   89  119  149  179  209  239  269
            0  0  3  0     3.300     30   60   90  120  150  180  210  240  270

 O                                   10
                                  ---------------------------------------------------------------------------
            0  0  0  0     9.800    271
            0  0  0  0     6.800    272
            0  0  0  1     7.580    273
            0  0  0  1     2.880    274
            0  0  0  1     1.720    275
            1  0  0  0     4.080    276
            0  1  0  0     4.080    277
            0  0  1  0     4.080    278
            1  0  0  0     2.080    279
            0  1  0  0     2.080    280
            0  0  1  0     2.080    281
            1  0  0  0     1.120    282
            0  1  0  0     1.120    283
            0  0  1  0     1.120    284
            2  0  0  0     2.000    285
            1  1  0  0     2.000    286
            1  0  1  0     2.000    287
            0  2  0  0     2.000    288
            0  1  1  0     2.000    289
            0  0  2  0     2.000    290
            3  0  0  0     3.000    291
            2  1  0  0     3.000    292
            2  0  1  0     3.000    293
            1  2  0  0     3.000    294
            1  1  1  0     3.000    295
            1  0  2  0     3.000    296
            0  3  0  0     3.000    297
            0  2  1  0     3.000    298
            0  1  2  0     3.000    299
            0  0  3  0     3.000    300

[...]
                                   -1.62%     2 P:y             4.589  0.00     6 C
                                    1.54%     2 S             -13.620  2.00     3 C
                                    1.54%     1 P:x            -5.239  0.67     8 C
                                    1.53%     2 S             -13.620  2.00     6 C
                                    1.51%     3 P:x             6.147  0.00    11 Cl
                                    1.37%     2 S               2.394  0.00    21 H
                                   -1.30%     2 P:x             9.437  0.00    10 O
                                    1.12%     1 P:y            -5.239  0.67     2 C
                                    1.07%     1 P:z            11.051  0.00    23 H
                                    1.07%     1 P:y            -5.239  0.67     7 C
                                    1.04%     1 P:y            -5.239  0.67     8 C
                                    1.01%     2 P:z             4.589  0.00     1 C
                                   -1.00%     2 S             -13.620  2.00     9 C
       3.810  0.00    66 A         23.24%     2 P:x             4.589  0.00     1 C
                                   13.48%     1 P:x            -5.239  0.67     1 C
                                   12.34%     1 P:x            -5.239  0.67     3 C
                                   11.59%     1 P:z            -5.239  0.67     6 C
                                    4.44%     2 P:z             4.589  0.00     6 C
                                   -4.41%     2 P:z             4.589  0.00     2 C
                                   -3.63%     3 S              10.158  0.00     7 C
                                   -3.57%     2 S               2.394  0.00    13 H
                                    3.18%     1 S              -6.532  1.00    13 H
                                    3.00%     2 S             -13.620  2.00     7 C
                                    2.80%     3 P:x             6.147  0.00    11 Cl
                                    2.69%     1 P:z            -5.239  0.67     2 C
                                    2.62%     1 P:z            -5.239  0.67     7 C
                                    2.37%     1 S              -6.532  1.00    21 H
                                    2.20%     2 S               2.394  0.00    20 H
                                    2.17%     2 P:x             4.589  0.00     3 C
                                   -2.17%     2 P:y             4.589  0.00     2 C
                                   -2.04%     3 S              40.869  0.00    13 H
                                    2.02%     1 S              -6.532  1.00    15 H
                                    2.01%     2 P:z             4.589  0.00     9 C
                                   -1.97%     2 P:x             9.437  0.00    10 O
                                   -1.95%     2 P:z             4.589  0.00     7 C
                                    1.94%     2 S               2.394  0.00    18 H
                                    1.93%     1 S              -6.532  1.00    14 H
                                    1.91%     1 P:x            -5.239  0.67     6 C
                                    1.75%     2 P:x             4.589  0.00     8 C
                                    1.72%     2 P:z             4.589  0.00     1 C
                                    1.70%     2 P:z             4.589  0.00     8 C
                                   -1.66%     3 S              10.158  0.00     2 C
                                    1.61%     1 P:y            -5.239  0.67     2 C
                                    1.60%     2 P:x             4.589  0.00     9 C
                                    1.55%     2 P:y             4.589  0.00     3 C
                                    1.46%     2 S             -13.620  2.00     2 C
                                    1.38%     1 P:y            -5.239  0.67     7 C
                                    1.37%     2 S               2.394  0.00    19 H
                                    1.36%     1 P:x            -5.239  0.67     2 C
                                    1.33%     1 P:x            11.051  0.00    16 H
                                   -1.31%     2 P:y             4.589  0.00     7 C
                                   -1.28%     2 P:x             4.589  0.00     4 C
                                    1.17%     1 P:y            -5.239  0.67     6 C
                                    1.10%     1 P:z            -5.239  0.67     1 C
                                   -1.03%     2 P:y             9.437  0.00    10 O
                                    1.02%     1 S              -6.532  1.00    22 H



 =======================================================================
 Electrostatic potential at the Nuclei due to electrons and other nuclei
 =======================================================================
  
         Atom                  Potential
         ----                  ---------
     1)   C                  14.73441425
     2)   O                  22.36523342
     3)   C                  14.65471770
     4)   Cl                 64.90201258
     5)   C                  14.77041081
     6)   C                  14.78052645
     7)   C                  14.77894558
     8)   C                  14.77222292
     9)   C                  14.75188866
    10)   C                  14.78576804
    11)   C                  14.79523830
    12)   H                   1.10168537
    13)   H                   1.10292224
    14)   H                   1.10351834
    15)   H                   1.10168024
    16)   H                   1.10609065
    17)   H                   1.12192166
    18)   H                   1.11943163
    19)   H                   1.12058532
    20)   H                   1.11568071
    21)   H                   1.11448926
    22)   H                   1.11237238
    23)   H                   1.09437225
    24)   H                   1.09545536
 Mulliken charges used for AMS results%charges...


    =====================
     CALCULATION RESULTS
    =====================

Energy (hartree)            -4.77550386


--------------
Atomic charges
--------------
  Index   Atom    Charge
      1      C    0.9783
      2      O   -0.5275
      3      C    0.3620
      4     Cl   -0.2718
      5      C    0.4336
      6      C    0.4119
      7      C    0.4173
      8      C    0.4353
      9      C    0.4166
     10      C   -0.0060
     11      C   -0.0345
     12      H   -0.2426
     13      H   -0.2069
     14      H   -0.1901
     15      H   -0.2090
     16      H   -0.1856
     17      H   -0.2052
     18      H   -0.1845
     19      H   -0.2016
     20      H   -0.2163
     21      H   -0.2008
     22      H   -0.2065
     23      H   -0.1807
     24      H   -0.1853


Dipole moment vector    (Debye):     3.71575846   -0.85015890    0.11660886
              magnitude (Debye):     3.81355854


-----------------------
Molecular orbitals info
-----------------------
n orbitals:              437
n spin:                    1

Note: only printing virtual orbitals with
      energy smaller than HOMO + 100. eV

HOMO (eV):              -6.1487
LUMO (eV):              -1.4909
HOMO-LUMO gap (eV):      4.6578

   Index   Energy (eV)    Occupation
     284       93.5651         0.000       
     283       93.0329         0.000       
     282       92.3861         0.000       
     281       91.3632         0.000       
     280       91.2357         0.000       
     279       90.7522         0.000       
     278       90.3098         0.000       
     277       89.7287         0.000       
     276       88.8444         0.000       
     275       88.3403         0.000       
     274       87.8839         0.000       
     273       87.3766         0.000       
     272       85.7723         0.000       
     271       85.0714         0.000       
     270       84.8302         0.000       
     269       84.4996         0.000       
     268       83.8126         0.000       
     267       83.6092         0.000       
     266       83.3673         0.000       
     265       82.9248         0.000       
     264       82.4166         0.000       
     263       81.7471         0.000       
     262       81.4163         0.000       
     261       80.8934         0.000       
     260       80.4779         0.000       
     259       80.1161         0.000       
     258       79.8512         0.000       
     257       79.4571         0.000       
     256       79.1713         0.000       
     255       78.8780         0.000       
     254       78.5725         0.000       
     253       78.1694         0.000       
     252       77.6641         0.000       
     251       77.4533         0.000       
     250       77.1228         0.000       
     249       76.8334         0.000       
     248       76.0222         0.000       
     247       75.3835         0.000       
     246       75.0184         0.000       
     245       74.9761         0.000       
     244       74.3659         0.000       
     243       73.7949         0.000       
     242       73.5374         0.000       
     241       73.2669         0.000       
     240       72.5619         0.000       
     239       71.9267         0.000       
     238       71.1618         0.000       
     237       70.5700         0.000       
     236       70.1948         0.000       
     235       68.7824         0.000       
     234       68.4788         0.000       
     233       67.4472         0.000       
     232       67.0975         0.000       
     231       66.4457         0.000       
     230       65.9011         0.000       
     229       64.9119         0.000       
     228       64.7066         0.000       
     227       64.3653         0.000       
     226       63.8589         0.000       
     225       63.5921         0.000       
     224       62.8811         0.000       
     223       62.2695         0.000       
     222       61.2547         0.000       
     221       60.4711         0.000       
     220       59.5086         0.000       
     219       59.3259         0.000       
     218       59.0978         0.000       
     217       58.2698         0.000       
     216       57.8629         0.000       
     215       57.7666         0.000       
     214       57.5871         0.000       
     213       56.9928         0.000       
     212       56.2254         0.000       
     211       55.9664         0.000       
     210       55.4532         0.000       
     209       54.9963         0.000       
     208       54.2922         0.000       
     207       53.4394         0.000       
     206       52.9571         0.000       
     205       52.5976         0.000       
     204       51.8802         0.000       
     203       51.8538         0.000       
     202       51.5511         0.000       
     201       51.0703         0.000       
     200       50.6634         0.000       
     199       50.2068         0.000       
     198       49.9733         0.000       
     197       49.1511         0.000       
     196       48.1049         0.000       
     195       47.7522         0.000       
     194       47.5866         0.000       
     193       46.9863         0.000       
     192       46.5332         0.000       
     191       45.7900         0.000       
     190       45.2330         0.000       
     189       45.0064         0.000       
     188       44.7943         0.000       
     187       43.8082         0.000       
     186       43.5469         0.000       
     185       43.2254         0.000       
     184       42.5587         0.000       
     183       41.5948         0.000       
     182       41.3004         0.000       
     181       40.6566         0.000       
     180       40.3284         0.000       
     179       39.8319         0.000       
     178       39.5094         0.000       
     177       39.3652         0.000       
     176       39.1134         0.000       
     175       38.8815         0.000       
     174       38.2050         0.000       
     173       38.1468         0.000       
     172       37.9748         0.000       
     171       37.4842         0.000       
     170       37.1152         0.000       
     169       36.8986         0.000       
     168       36.7083         0.000       
     167       36.3292         0.000       
     166       36.2124         0.000       
     165       35.8025         0.000       
     164       35.6413         0.000       
     163       35.4239         0.000       
     162       34.8660         0.000       
     161       34.4574         0.000       
     160       34.3972         0.000       
     159       34.2205         0.000       
     158       33.7116         0.000       
     157       33.5120         0.000       
     156       32.9772         0.000       
     155       32.7412         0.000       
     154       32.5224         0.000       
     153       32.2598         0.000       
     152       31.5980         0.000       
     151       31.5215         0.000       
     150       31.4186         0.000       
     149       30.5833         0.000       
     148       30.3613         0.000       
     147       30.2770         0.000       
     146       29.7288         0.000       
     145       29.3592         0.000       
     144       29.1889         0.000       
     143       28.7160         0.000       
     142       28.2060         0.000       
     141       27.5533         0.000       
     140       27.2377         0.000       
     139       26.9246         0.000       
     138       26.5521         0.000       
     137       26.2276         0.000       
     136       25.7751         0.000       
     135       25.6115         0.000       
     134       25.1786         0.000       
     133       24.9637         0.000       
     132       24.6627         0.000       
     131       23.9702         0.000       
     130       23.6018         0.000       
     129       22.8204         0.000       
     128       22.2864         0.000       
     127       22.0811         0.000       
     126       21.7417         0.000       
     125       21.1622         0.000       
     124       20.8004         0.000       
     123       19.9104         0.000       
     122       19.6328         0.000       
     121       18.8457         0.000       
     120       18.3344         0.000       
     119       17.4813         0.000       
     118       17.2670         0.000       
     117       16.4952         0.000       
     116       16.1280         0.000       
     115       15.8128         0.000       
     114       15.4953         0.000       
     113       14.6506         0.000       
     112       14.5257         0.000       
     111       14.1579         0.000       
     110       13.8890         0.000       
     109       13.1407         0.000       
     108       13.0577         0.000       
     107       12.6598         0.000       
     106       12.3134         0.000       
     105       11.9031         0.000       
     104       11.8544         0.000       
     103       11.6199         0.000       
     102       11.5471         0.000       
     101       11.2504         0.000       
     100       11.0493         0.000       
      99       10.8300         0.000       
      98       10.6395         0.000       
      97       10.4968         0.000       
      96       10.3510         0.000       
      95       10.1611         0.000       
      94        9.8368         0.000       
      93        9.6791         0.000       
      92        9.5160         0.000       
      91        9.2413         0.000       
      90        9.0423         0.000       
      89        8.8592         0.000       
      88        8.7750         0.000       
      87        8.4860         0.000       
      86        8.4627         0.000       
      85        8.3786         0.000       
      84        8.0231         0.000       
      83        7.7061         0.000       
      82        7.6525         0.000       
      81        7.3874         0.000       
      80        6.8495         0.000       
      79        6.5288         0.000       
      78        6.2907         0.000       
      77        6.0717         0.000       
      76        5.9611         0.000       
      75        5.7401         0.000       
      74        5.3741         0.000       
      73        5.2592         0.000       
      72        5.0509         0.000       
      71        4.8307         0.000       
      70        4.7788         0.000       
      69        4.4786         0.000       
      68        4.3139         0.000       
      67        4.0122         0.000       
      66        3.8100         0.000       
      65        3.5346         0.000       
      64        2.9662         0.000       
      63        2.7989         0.000       
      62        2.2357         0.000       
      61        2.1611         0.000       
      60        1.9430         0.000       
      59        1.8923         0.000       
      58        1.7026         0.000       
      57        1.2958         0.000       
      56        1.2015         0.000       
      55        1.0639         0.000       
      54        0.8525         0.000       
      53        0.7137         0.000       
      52        0.3004         0.000       
      51        0.0953         0.000       
      50       -0.1254         0.000       
      49       -0.4122         0.000       
      48       -1.4195         0.000       
      47       -1.4909         0.000 < LUMO
      46       -6.1487         2.000 < HOMO
      45       -6.3546         2.000       
      44       -6.5943         2.000       
      43       -6.7100         2.000       
      42       -7.1006         2.000       
      41       -7.7507         2.000       
      40       -8.0694         2.000       
      39       -8.2347         2.000       
      38       -8.3915         2.000       
      37       -8.8645         2.000       
      36       -9.5985         2.000       
      35       -9.7771         2.000       
      34       -9.9527         2.000       
      33      -10.2996         2.000       
      32      -10.5546         2.000       
      31      -11.0846         2.000       
      30      -11.4222         2.000       
      29      -11.6006         2.000       
      28      -11.9762         2.000       
      27      -12.3865         2.000       
      26      -12.9822         2.000       
      25      -14.4062         2.000       
      24      -14.5754         2.000       
      23      -16.1662         2.000       
      22      -17.2024         2.000       
      21      -17.8340         2.000       
      20      -18.8226         2.000       
      19      -19.2621         2.000       
      18      -20.1744         2.000       
      17      -20.9152         2.000       
      16      -26.8286         2.000       
      15     -189.2179         2.000       
      14     -189.2262         2.000       
      13     -189.4689         2.000       
      12     -250.2516         2.000       
      11     -269.9709         2.000       
      10     -270.1144         2.000       
       9     -270.1619         2.000       
       8     -270.2904         2.000       
       7     -270.3630         2.000       
       6     -270.4396         2.000       
       5     -270.8862         2.000       
       4     -271.3821         2.000       
       3     -273.5559         2.000       
       2     -512.3300         2.000       
       1    -2749.5044         2.000       

AMS application finished. Exiting.
NORMAL TERMINATION
     Total cpu time:      97.83
  Total system time:       0.40
 Total elapsed time:      98.78
NORMAL TERMINATION
