srun: Job 662085 step creation temporarily disabled, retrying (Requested nodes are busy)
srun: Job 662085 step creation still disabled, retrying (Requested nodes are busy)
srun: Job 662085 step creation still disabled, retrying (Requested nodes are busy)
srun: Job 662085 step creation still disabled, retrying (Requested nodes are busy)
srun: Job 662085 step creation still disabled, retrying (Requested nodes are busy)
srun: Job 662085 step creation still disabled, retrying (Requested nodes are busy)
srun: Step created for StepId=662085.73

 *******************************************************************************
 *                                                                             *
 *  --------------------------------                                           *
 *   Amsterdam Modeling Suite (AMS)              2026.103                      *
 *  --------------------------------                                           *
 *                                               r260501 2026-05-01 873454b5   *
 *                                                                             *
 *                                                                             *
 *                              =================                              *
 *                              |               |                              *
 *                              |     A M S     |                              *
 *                              |               |                              *
 *                              =================                              *
 *                                                                             *
 *                                                                             *
 *   Online information and documentation:  https://www.scm.com/support/       *
 *   E-mail:  support@scm.com   info@scm.com                                   *
 *                                                                             *
 *   Scientific publications using AMS results must be properly referenced     *
 *   See the User Manuals (or the web site) for recommended citations          *
 *   The terms and conditions of the End User License Agreement apply to       *
 *   the use of AMS, https://www.scm.com/license-terms/                        *
 *                                                                             *
 **********************  x86_64_linux_intel / intelmpi  ************************
 
 Licensed to: Jong-June Jeon / University of Seoul 2026-06-02 13:44:15
 SCM User ID: u30731
  
 AMS 2026.103  RunTime: Jun03-2026 11:53:19  ShM Nodes: 1  Procs: 1

 AMS jobname: c2_fragB_ts
 AMS jobid  : 1294639179

 Start   directory: /gpfs/home1/yeseo1ee/projects/eda-asm-prediction/ADF_800/adf_outputs/batch_000/dipolar_001120/
 Results directory: /gpfs/home1/yeseo1ee/projects/eda-asm-prediction/ADF_800/adf_outputs/batch_000/dipolar_001120/c2_fragB_ts.results/
 Scratch directory: /tmp/amstmp_c2_fragB_ts_kid0.1294639179/

 RNG seed: 566704121 -100589611 -714400461 -215234152 -1701716382 1589443932 847123344 -303161044



                      ************************************************************************
                      *  ADF 2026.103  RunTime: Jun03-2026 11:53:19  ShM Nodes: 1  Procs: 1  *
                      ************************************************************************
  

       ****************************
       * SINGLE POINT CALCULATION *
       ****************************

--------
Geometry
--------
Formula: C8H10Cl2
Atoms
  Index Symbol   x (angstrom)   y (angstrom)   z (angstrom)
      1      C     0.02538000     0.62490000     0.39844000
      2      C    -0.99458000     0.05743000    -0.05121000
      3      C    -2.43032000    -0.19156000    -0.18121000
      4      C    -3.20079000     0.21118000     1.08833000
      5      C    -3.12184000     1.68383000     1.51235000
      6      C    -1.87881000     2.16003000     2.29460000
      7      C    -0.70690000     2.75610000     1.49451000
      8      C     0.44261000     1.80626000     1.15017000
      9     Cl     1.28268000     1.26816000     2.68884000
     10     Cl     1.66125000     2.76006000     0.16097000
     11      H    -2.80337000     0.36841000    -1.05688000
     12      H    -2.62164000    -1.25517000    -0.39342000
     13      H    -2.86511000    -0.42880000     1.92189000
     14      H    -4.25745000    -0.04323000     0.90529000
     15      H    -3.99045000     1.86206000     2.16631000
     16      H    -3.27546000     2.33289000     0.63178000
     17      H    -2.21396000     2.96191000     2.96964000
     18      H    -1.51396000     1.35577000     2.95442000
     19      H    -1.07044000     3.16116000     0.53720000
     20      H    -0.25943000     3.59405000     2.04794000

Total System Charge              0.00000


----------------
ADF Engine Input
----------------
 
   Basis
     Type TZ2P
     Core None
   End
   XC
     GGA BLYP
     Dispersion GRIMME3 BJDAMP
   End
   Symmetry NOSYM
   NumericalQuality Normal
   Unrestricted No
   SCF
     Iterations 200
     Converge 1.0e-6
   End
   Save TAPE21
 

 Title: *** (NO TITLE) ***

 *** adf ***



 ===========================
 A T T A C H E D   F I L E S
 ===========================
  



 ===============================
 M O D E L   P A R A M E T E R S
 ===============================
  
 DENSITY FUNCTIONAL POTENTIAL (scf)
    LDA:                               Exchange only                           == Not Default ==
    Gradient Corrections:              Becke88 LYP                             == Not Default ==

 SPIN  (restricted / unrestr.)
    Molecule:                          Restricted                               
    Fragments:                         Restricted                               

 OTHER ASPECTS
    Relativistic Corrections:          scalar (ZORA,MAPA)                       

    Nuclear Charge Density Model:      Point Charge Nuclei                      
    Core Treatment:                    Frozen Orbital(s)                        

    Hyperfine or Zeeman Interaction:   ---                                      

 Settings for Grimme D3 dispersion correction

      damping                        BJ
      s6                          1.000
      s8                          2.700
      a1                          0.430
      a2                          4.236

 Other (technical) parameters

      alpha                      14.000
      version                         4
 


 Fragment File(s)
 ----------------
 C:
         file : /gpfs/home1/yeseo1ee/projects/eda-asm-prediction/ADF_800/adf_outputs/batch_000/dipolar_001120/c2_fragB_ts.results/t21.50BA88D5.C
         jobid: 0
         title: Carbon (TZ2P)
 Cl:
         file : /gpfs/home1/yeseo1ee/projects/eda-asm-prediction/ADF_800/adf_outputs/batch_000/dipolar_001120/c2_fragB_ts.results/t21.3FD35465.Cl
         jobid: 0
         title: Chlorine (TZ2P)
 H:
         file : /gpfs/home1/yeseo1ee/projects/eda-asm-prediction/ADF_800/adf_outputs/batch_000/dipolar_001120/c2_fragB_ts.results/t21.6F35CCAB.H
         jobid: 0
         title: Hydrogen (TZ2P)



 ===============
 G E O M E T R Y  ***  3D  Molecule  ***
 ===============
  

 ATOMS
 =====                            X Y Z                    CHARGE
                                (Angstrom)             Nucl     +Core       At.Mass
                       --------------------------    ----------------       -------
    1  C               0.0254    0.6249    0.3984      6.00      6.00       12.0000
    2  C              -0.9946    0.0574   -0.0512      6.00      6.00       12.0000
    3  C              -2.4303   -0.1916   -0.1812      6.00      6.00       12.0000
    4  C              -3.2008    0.2112    1.0883      6.00      6.00       12.0000
    5  C              -3.1218    1.6838    1.5123      6.00      6.00       12.0000
    6  C              -1.8788    2.1600    2.2946      6.00      6.00       12.0000
    7  C              -0.7069    2.7561    1.4945      6.00      6.00       12.0000
    8  C               0.4426    1.8063    1.1502      6.00      6.00       12.0000
    9  Cl              1.2827    1.2682    2.6888     17.00     17.00       34.9689
   10  Cl              1.6612    2.7601    0.1610     17.00     17.00       34.9689
   11  H              -2.8034    0.3684   -1.0569      1.00      1.00        1.0078
   12  H              -2.6216   -1.2552   -0.3934      1.00      1.00        1.0078
   13  H              -2.8651   -0.4288    1.9219      1.00      1.00        1.0078
   14  H              -4.2574   -0.0432    0.9053      1.00      1.00        1.0078
   15  H              -3.9904    1.8621    2.1663      1.00      1.00        1.0078
   16  H              -3.2755    2.3329    0.6318      1.00      1.00        1.0078
   17  H              -2.2140    2.9619    2.9696      1.00      1.00        1.0078
   18  H              -1.5140    1.3558    2.9544      1.00      1.00        1.0078
   19  H              -1.0704    3.1612    0.5372      1.00      1.00        1.0078
   20  H              -0.2594    3.5941    2.0479      1.00      1.00        1.0078


 FRAGMENTS
 =========                                     Atoms in this Fragment     Cart. coord.s (Angstrom)
                                               -------------------------------------------------------
    1  C                                                 1  C            0.0254    0.6249    0.3984
    2  C                                                 2  C           -0.9946    0.0574   -0.0512
    3  C                                                 3  C           -2.4303   -0.1916   -0.1812
    4  C                                                 4  C           -3.2008    0.2112    1.0883
    5  C                                                 5  C           -3.1218    1.6838    1.5123
    6  C                                                 6  C           -1.8788    2.1600    2.2946
    7  C                                                 7  C           -0.7069    2.7561    1.4945
    8  C                                                 8  C            0.4426    1.8063    1.1502
    9  Cl                                                9  Cl           1.2827    1.2682    2.6888
   10  Cl                                               10  Cl           1.6612    2.7601    0.1610
   11  H                                                11  H           -2.8034    0.3684   -1.0569
   12  H                                                12  H           -2.6216   -1.2552   -0.3934
   13  H                                                13  H           -2.8651   -0.4288    1.9219
   14  H                                                14  H           -4.2574   -0.0432    0.9053
   15  H                                                15  H           -3.9904    1.8621    2.1663
   16  H                                                16  H           -3.2755    2.3329    0.6318
   17  H                                                17  H           -2.2140    2.9619    2.9696
   18  H                                                18  H           -1.5140    1.3558    2.9544
   19  H                                                19  H           -1.0704    3.1612    0.5372
   20  H                                                20  H           -0.2594    3.5941    2.0479



 =====================================
 S Y M M E T R Y ,   E L E C T R O N S
 =====================================
  
 Symmetry: NOSYM

 Irreducible Representations, including subspecies
 -------------------------------------------------
 A


 Configuration of Valence Electrons
 ==================================
 ( determined in the SCF procedure )

 Total:   92

 Net Charge: 0 (Nuclei minus Electrons)

 Aufbau principle for MO occupations will be applied through SCF cycle no.     100
 Thereafter, the program will assign electrons to MOs that are spatially
 similar to the occupied MOs in a "reference" cycle ("KeepOrbitals").
 The reference cycle is always the PREVIOUS cycle: it will evolve with
 the SCF procedure.
 ***************************************************************************************************



                                      ****************************************
                                      *  B U I L D : (Fragments, Functions)  *
                                      ****************************************
  



 =======
 S F O s  ***  (Symmetrized Fragment Orbitals)  ***
 =======
  
 SFOs are linear combinations of (valence) Fragment Orbitals (FOs), such that the SFOs transform as the
 irreducible representations of the (molecular) symmetry group. Each SFO is therefore characterized by
 an irrep of the molecule and by a few (or only one) generating FOs.
 The SFOs constitute a symmetry-adapted basis for the Fock matrix. The MO eigenvector coefficients in
 this basis provide a direct interpretation of the MOs in terms of Frontier Orbital Theory.

 The SFOs are combined with auxiliary Core Functions (CFs) to ensure orthogonalization on the (frozen)
 Core Orbitals (COs). The Core-orthogonalized SFOs (CSFOs) constitute the true Fock basis.

 The FOs, and hence also the (C)SFOs are combinations of the elementary basis functions (BAS). The basis
 functions that participate in the description of the SFOs depend on the irrep. The indices of the
 involved functions are printed below for each irrep.
 (The complete list of primitive basis functions is printed in another section)

 Total nr. of (C)SFOs (summation over all irreps) :   386

 NOTE: a (C)SFO that is defined as a combination of more than one FO is usually NOT normalized.



                                       === A ===
 Nr. of SFOs :  386
 Cartesian basis functions that participate in this irrep (total number =   436) :
      1     2     3     4     5     6     9    12     7    10
     13     8    11    14    15    16    17    18    19    20
     21    22    23    24    25    26    27    28    29    30
     31    32    33    34    35    36    39    42    37    40
     43    38    41    44    45    46    47    48    49    50
     51    52    53    54    55    56    57    58    59    60
     61    62    63    64    65    66    69    72    67    70
     73    68    71    74    75    76    77    78    79    80
     81    82    83    84    85    86    87    88    89    90
     91    92    93    94    95    96    99   102    97   100
    103    98   101   104   105   106   107   108   109   110
    111   112   113   114   115   116   117   118   119   120
    121   122   123   124   125   126   129   132   127   130
    133   128   131   134   135   136   137   138   139   140
    141   142   143   144   145   146   147   148   149   150
    151   152   153   154   155   156   159   162   157   160
    163   158   161   164   165   166   167   168   169   170
    171   172   173   174   175   176   177   178   179   180
    181   182   183   184   185   186   189   192   187   190
    193   188   191   194   195   196   197   198   199   200
    201   202   203   204   205   206   207   208   209   210
    211   212   213   214   215   216   219   222   217   220
    223   218   221   224   225   226   227   228   229   230
    231   232   233   234   235   236   237   238   239   240
    241   242   243   244   251   252   253   245   248   254
    257   260   246   249   255   258   261   247   250   256
    259   262   263   264   265   266   267   268   269   270
    271   272   273   274   275   276   277   278   279   280
    281   282   289   290   291   283   286   292   295   298
    284   287   293   296   299   285   288   294   297   300
    301   302   303   304   305   306   307   308   309   310
    311   312   313   314   315   316   317   318   319   320
    321   322   323   324   325   326   327   328   329   330
    331   332   333   334   335   336   337   338   339   340
    341   342   343   344   345   346   347   348   349   350
    351   352   353   354   355   356   357   358   359   360
    361   362   363   364   365   366   367   368   369   370
    371   372   373   374   375   376   377   378   379   380
    381   382   383   384   385   386   387   388   389   390
    391   392   393   394   395   396   397   398   399   400
    401   402   403   404   405   406   407   408   409   410
    411   412   413   414   415   416   417   418   419   420
    421   422   423   424   425   426   427   428   429   430
    431   432   433   434   435   436

    SFO  (index         Fragment          Generating    Expansion in Fragment Orbitals
  indx  incl.CFs)   Occup   Orb.Energy   FragmentType  Coeff.   Orbital     on Fragment
 --------------------------------------------------------------------------------------
     1       1      2.000     -10.066 au  C             1.00      1 S               1
                        (    -273.921 eV)
     2       2      2.000      -0.501 au  C             1.00      2 S               1
                        (     -13.620 eV)
     3       3       --         0.373 au  C             1.00      3 S               1
                        (      10.158 eV)
     4       4       --         5.405 au  C             1.00      4 S               1
                        (     147.073 eV)
     5       5       --        49.848 au  C             1.00      5 S               1
                        (    1356.422 eV)
     6       6      0.667      -0.193 au  C             1.00      1 P:x             1
                        (      -5.239 eV)
     7       7       --         0.169 au  C             1.00      2 P:x             1
                        (       4.589 eV)
     8       8       --         2.013 au  C             1.00      3 P:x             1
                        (      54.789 eV)
     9       9      0.667      -0.193 au  C             1.00      1 P:y             1
                        (      -5.239 eV)
    10      10       --         0.169 au  C             1.00      2 P:y             1
                        (       4.589 eV)
    11      11       --         2.013 au  C             1.00      3 P:y             1
                        (      54.789 eV)
    12      12      0.667      -0.193 au  C             1.00      1 P:z             1
                        (      -5.239 eV)
    13      13       --         0.169 au  C             1.00      2 P:z             1
                        (       4.589 eV)
    14      14       --         2.013 au  C             1.00      3 P:z             1
                        (      54.789 eV)
    15      15       --         1.243 au  C             1.00      1 D:z2            1
                        (      33.824 eV)
    16      16       --         1.243 au  C             1.00      1 D:x2-y2         1
                        (      33.824 eV)
    17      17       --         1.243 au  C             1.00      1 D:xy            1
                        (      33.824 eV)
    18      18       --         1.243 au  C             1.00      1 D:xz            1
                        (      33.824 eV)
    19      19       --         1.243 au  C             1.00      1 D:yz            1
                        (      33.824 eV)
    20      20       --         4.016 au  C             1.00      1 F:z3            1
                        (     109.271 eV)
    21      21       --         4.016 au  C             1.00      1 F:z             1
                        (     109.271 eV)
    22      22       --         4.016 au  C             1.00      1 F:xyz           1
                        (     109.271 eV)
    23      23       --         4.016 au  C             1.00      1 F:z2x           1
                        (     109.271 eV)
    24      24       --         4.016 au  C             1.00      1 F:z2y           1
                        (     109.271 eV)
    25      25       --         4.016 au  C             1.00      1 F:x             1
                        (     109.271 eV)
    26      26       --         4.016 au  C             1.00      1 F:y             1
                        (     109.271 eV)
    27      27      2.000     -10.066 au  C             1.00      1 S               2
                        (    -273.921 eV)
    28      28      2.000      -0.501 au  C             1.00      2 S               2
                        (     -13.620 eV)
    29      29       --         0.373 au  C             1.00      3 S               2
                        (      10.158 eV)
    30      30       --         5.405 au  C             1.00      4 S               2
                        (     147.073 eV)
    31      31       --        49.848 au  C             1.00      5 S               2
                        (    1356.422 eV)
    32      32      0.667      -0.193 au  C             1.00      1 P:x             2
                        (      -5.239 eV)
    33      33       --         0.169 au  C             1.00      2 P:x             2
                        (       4.589 eV)
    34      34       --         2.013 au  C             1.00      3 P:x             2
                        (      54.789 eV)
    35      35      0.667      -0.193 au  C             1.00      1 P:y             2
                        (      -5.239 eV)
    36      36       --         0.169 au  C             1.00      2 P:y             2
                        (       4.589 eV)
    37      37       --         2.013 au  C             1.00      3 P:y             2
                        (      54.789 eV)
    38      38      0.667      -0.193 au  C             1.00      1 P:z             2
                        (      -5.239 eV)
    39      39       --         0.169 au  C             1.00      2 P:z             2
                        (       4.589 eV)
    40      40       --         2.013 au  C             1.00      3 P:z             2
                        (      54.789 eV)
    41      41       --         1.243 au  C             1.00      1 D:z2            2
                        (      33.824 eV)
    42      42       --         1.243 au  C             1.00      1 D:x2-y2         2
                        (      33.824 eV)
    43      43       --         1.243 au  C             1.00      1 D:xy            2
                        (      33.824 eV)
    44      44       --         1.243 au  C             1.00      1 D:xz            2
                        (      33.824 eV)
    45      45       --         1.243 au  C             1.00      1 D:yz            2
                        (      33.824 eV)
    46      46       --         4.016 au  C             1.00      1 F:z3            2
                        (     109.271 eV)
    47      47       --         4.016 au  C             1.00      1 F:z             2
                        (     109.271 eV)
    48      48       --         4.016 au  C             1.00      1 F:xyz           2
                        (     109.271 eV)
    49      49       --         4.016 au  C             1.00      1 F:z2x           2
                        (     109.271 eV)
    50      50       --         4.016 au  C             1.00      1 F:z2y           2
                        (     109.271 eV)
    51      51       --         4.016 au  C             1.00      1 F:x             2
                        (     109.271 eV)
    52      52       --         4.016 au  C             1.00      1 F:y             2
                        (     109.271 eV)
    53      53      2.000     -10.066 au  C             1.00      1 S               3
                        (    -273.921 eV)
    54      54      2.000      -0.501 au  C             1.00      2 S               3
                        (     -13.620 eV)
    55      55       --         0.373 au  C             1.00      3 S               3
                        (      10.158 eV)
    56      56       --         5.405 au  C             1.00      4 S               3
                        (     147.073 eV)
    57      57       --        49.848 au  C             1.00      5 S               3
                        (    1356.422 eV)
    58      58      0.667      -0.193 au  C             1.00      1 P:x             3
                        (      -5.239 eV)
    59      59       --         0.169 au  C             1.00      2 P:x             3
                        (       4.589 eV)
    60      60       --         2.013 au  C             1.00      3 P:x             3
                        (      54.789 eV)
    61      61      0.667      -0.193 au  C             1.00      1 P:y             3
                        (      -5.239 eV)
    62      62       --         0.169 au  C             1.00      2 P:y             3
                        (       4.589 eV)
    63      63       --         2.013 au  C             1.00      3 P:y             3
                        (      54.789 eV)
    64      64      0.667      -0.193 au  C             1.00      1 P:z             3
                        (      -5.239 eV)
    65      65       --         0.169 au  C             1.00      2 P:z             3
                        (       4.589 eV)
    66      66       --         2.013 au  C             1.00      3 P:z             3
                        (      54.789 eV)
    67      67       --         1.243 au  C             1.00      1 D:z2            3
                        (      33.824 eV)
    68      68       --         1.243 au  C             1.00      1 D:x2-y2         3
                        (      33.824 eV)
    69      69       --         1.243 au  C             1.00      1 D:xy            3
                        (      33.824 eV)
    70      70       --         1.243 au  C             1.00      1 D:xz            3
                        (      33.824 eV)
    71      71       --         1.243 au  C             1.00      1 D:yz            3
                        (      33.824 eV)
    72      72       --         4.016 au  C             1.00      1 F:z3            3
                        (     109.271 eV)
    73      73       --         4.016 au  C             1.00      1 F:z             3
                        (     109.271 eV)
    74      74       --         4.016 au  C             1.00      1 F:xyz           3
                        (     109.271 eV)
    75      75       --         4.016 au  C             1.00      1 F:z2x           3
                        (     109.271 eV)
    76      76       --         4.016 au  C             1.00      1 F:z2y           3
                        (     109.271 eV)
    77      77       --         4.016 au  C             1.00      1 F:x             3
                        (     109.271 eV)
    78      78       --         4.016 au  C             1.00      1 F:y             3
                        (     109.271 eV)
    79      79      2.000     -10.066 au  C             1.00      1 S               4
                        (    -273.921 eV)
    80      80      2.000      -0.501 au  C             1.00      2 S               4
                        (     -13.620 eV)
    81      81       --         0.373 au  C             1.00      3 S               4
                        (      10.158 eV)
    82      82       --         5.405 au  C             1.00      4 S               4
                        (     147.073 eV)
    83      83       --        49.848 au  C             1.00      5 S               4
                        (    1356.422 eV)
    84      84      0.667      -0.193 au  C             1.00      1 P:x             4
                        (      -5.239 eV)
    85      85       --         0.169 au  C             1.00      2 P:x             4
                        (       4.589 eV)
    86      86       --         2.013 au  C             1.00      3 P:x             4
                        (      54.789 eV)
    87      87      0.667      -0.193 au  C             1.00      1 P:y             4
                        (      -5.239 eV)
    88      88       --         0.169 au  C             1.00      2 P:y             4
                        (       4.589 eV)
    89      89       --         2.013 au  C             1.00      3 P:y             4
                        (      54.789 eV)
    90      90      0.667      -0.193 au  C             1.00      1 P:z             4
                        (      -5.239 eV)
    91      91       --         0.169 au  C             1.00      2 P:z             4
                        (       4.589 eV)
    92      92       --         2.013 au  C             1.00      3 P:z             4
                        (      54.789 eV)
    93      93       --         1.243 au  C             1.00      1 D:z2            4
                        (      33.824 eV)
    94      94       --         1.243 au  C             1.00      1 D:x2-y2         4
                        (      33.824 eV)
    95      95       --         1.243 au  C             1.00      1 D:xy            4
                        (      33.824 eV)
    96      96       --         1.243 au  C             1.00      1 D:xz            4
                        (      33.824 eV)
    97      97       --         1.243 au  C             1.00      1 D:yz            4
                        (      33.824 eV)
    98      98       --         4.016 au  C             1.00      1 F:z3            4
                        (     109.271 eV)
    99      99       --         4.016 au  C             1.00      1 F:z             4
                        (     109.271 eV)
   100     100       --         4.016 au  C             1.00      1 F:xyz           4
                        (     109.271 eV)
   101     101       --         4.016 au  C             1.00      1 F:z2x           4
                        (     109.271 eV)
   102     102       --         4.016 au  C             1.00      1 F:z2y           4
                        (     109.271 eV)
   103     103       --         4.016 au  C             1.00      1 F:x             4
                        (     109.271 eV)
   104     104       --         4.016 au  C             1.00      1 F:y             4
                        (     109.271 eV)
   105     105      2.000     -10.066 au  C             1.00      1 S               5
                        (    -273.921 eV)
   106     106      2.000      -0.501 au  C             1.00      2 S               5
                        (     -13.620 eV)
   107     107       --         0.373 au  C             1.00      3 S               5
                        (      10.158 eV)
   108     108       --         5.405 au  C             1.00      4 S               5
                        (     147.073 eV)
   109     109       --        49.848 au  C             1.00      5 S               5
                        (    1356.422 eV)
   110     110      0.667      -0.193 au  C             1.00      1 P:x             5
                        (      -5.239 eV)
   111     111       --         0.169 au  C             1.00      2 P:x             5
                        (       4.589 eV)
   112     112       --         2.013 au  C             1.00      3 P:x             5
                        (      54.789 eV)
   113     113      0.667      -0.193 au  C             1.00      1 P:y             5
                        (      -5.239 eV)
   114     114       --         0.169 au  C             1.00      2 P:y             5
                        (       4.589 eV)
   115     115       --         2.013 au  C             1.00      3 P:y             5
                        (      54.789 eV)
   116     116      0.667      -0.193 au  C             1.00      1 P:z             5
                        (      -5.239 eV)
   117     117       --         0.169 au  C             1.00      2 P:z             5
                        (       4.589 eV)
   118     118       --         2.013 au  C             1.00      3 P:z             5
                        (      54.789 eV)
   119     119       --         1.243 au  C             1.00      1 D:z2            5
                        (      33.824 eV)
   120     120       --         1.243 au  C             1.00      1 D:x2-y2         5
                        (      33.824 eV)
   121     121       --         1.243 au  C             1.00      1 D:xy            5
                        (      33.824 eV)
   122     122       --         1.243 au  C             1.00      1 D:xz            5
                        (      33.824 eV)
   123     123       --         1.243 au  C             1.00      1 D:yz            5
                        (      33.824 eV)
   124     124       --         4.016 au  C             1.00      1 F:z3            5
                        (     109.271 eV)
   125     125       --         4.016 au  C             1.00      1 F:z             5
                        (     109.271 eV)
   126     126       --         4.016 au  C             1.00      1 F:xyz           5
                        (     109.271 eV)
   127     127       --         4.016 au  C             1.00      1 F:z2x           5
                        (     109.271 eV)
   128     128       --         4.016 au  C             1.00      1 F:z2y           5
                        (     109.271 eV)
   129     129       --         4.016 au  C             1.00      1 F:x             5
                        (     109.271 eV)
   130     130       --         4.016 au  C             1.00      1 F:y             5
                        (     109.271 eV)
   131     131      2.000     -10.066 au  C             1.00      1 S               6
                        (    -273.921 eV)
   132     132      2.000      -0.501 au  C             1.00      2 S               6
                        (     -13.620 eV)
   133     133       --         0.373 au  C             1.00      3 S               6
                        (      10.158 eV)
   134     134       --         5.405 au  C             1.00      4 S               6
                        (     147.073 eV)
   135     135       --        49.848 au  C             1.00      5 S               6
                        (    1356.422 eV)
   136     136      0.667      -0.193 au  C             1.00      1 P:x             6
                        (      -5.239 eV)
   137     137       --         0.169 au  C             1.00      2 P:x             6
                        (       4.589 eV)
   138     138       --         2.013 au  C             1.00      3 P:x             6
                        (      54.789 eV)
   139     139      0.667      -0.193 au  C             1.00      1 P:y             6
                        (      -5.239 eV)
   140     140       --         0.169 au  C             1.00      2 P:y             6
                        (       4.589 eV)
   141     141       --         2.013 au  C             1.00      3 P:y             6
                        (      54.789 eV)
   142     142      0.667      -0.193 au  C             1.00      1 P:z             6
                        (      -5.239 eV)
   143     143       --         0.169 au  C             1.00      2 P:z             6
                        (       4.589 eV)
   144     144       --         2.013 au  C             1.00      3 P:z             6
                        (      54.789 eV)
   145     145       --         1.243 au  C             1.00      1 D:z2            6
                        (      33.824 eV)
   146     146       --         1.243 au  C             1.00      1 D:x2-y2         6
                        (      33.824 eV)
   147     147       --         1.243 au  C             1.00      1 D:xy            6
                        (      33.824 eV)
   148     148       --         1.243 au  C             1.00      1 D:xz            6
                        (      33.824 eV)
   149     149       --         1.243 au  C             1.00      1 D:yz            6
                        (      33.824 eV)
   150     150       --         4.016 au  C             1.00      1 F:z3            6
                        (     109.271 eV)
   151     151       --         4.016 au  C             1.00      1 F:z             6
                        (     109.271 eV)
   152     152       --         4.016 au  C             1.00      1 F:xyz           6
                        (     109.271 eV)
   153     153       --         4.016 au  C             1.00      1 F:z2x           6
                        (     109.271 eV)
   154     154       --         4.016 au  C             1.00      1 F:z2y           6
                        (     109.271 eV)
   155     155       --         4.016 au  C             1.00      1 F:x             6
                        (     109.271 eV)
   156     156       --         4.016 au  C             1.00      1 F:y             6
                        (     109.271 eV)
   157     157      2.000     -10.066 au  C             1.00      1 S               7
                        (    -273.921 eV)
   158     158      2.000      -0.501 au  C             1.00      2 S               7
                        (     -13.620 eV)
   159     159       --         0.373 au  C             1.00      3 S               7
                        (      10.158 eV)
   160     160       --         5.405 au  C             1.00      4 S               7
                        (     147.073 eV)
   161     161       --        49.848 au  C             1.00      5 S               7
                        (    1356.422 eV)
   162     162      0.667      -0.193 au  C             1.00      1 P:x             7
                        (      -5.239 eV)
   163     163       --         0.169 au  C             1.00      2 P:x             7
                        (       4.589 eV)
   164     164       --         2.013 au  C             1.00      3 P:x             7
                        (      54.789 eV)
   165     165      0.667      -0.193 au  C             1.00      1 P:y             7
                        (      -5.239 eV)
   166     166       --         0.169 au  C             1.00      2 P:y             7
                        (       4.589 eV)
   167     167       --         2.013 au  C             1.00      3 P:y             7
                        (      54.789 eV)
   168     168      0.667      -0.193 au  C             1.00      1 P:z             7
                        (      -5.239 eV)
   169     169       --         0.169 au  C             1.00      2 P:z             7
                        (       4.589 eV)
   170     170       --         2.013 au  C             1.00      3 P:z             7
                        (      54.789 eV)
   171     171       --         1.243 au  C             1.00      1 D:z2            7
                        (      33.824 eV)
   172     172       --         1.243 au  C             1.00      1 D:x2-y2         7
                        (      33.824 eV)
   173     173       --         1.243 au  C             1.00      1 D:xy            7
                        (      33.824 eV)
   174     174       --         1.243 au  C             1.00      1 D:xz            7
                        (      33.824 eV)
   175     175       --         1.243 au  C             1.00      1 D:yz            7
                        (      33.824 eV)
   176     176       --         4.016 au  C             1.00      1 F:z3            7
                        (     109.271 eV)
   177     177       --         4.016 au  C             1.00      1 F:z             7
                        (     109.271 eV)
   178     178       --         4.016 au  C             1.00      1 F:xyz           7
                        (     109.271 eV)
   179     179       --         4.016 au  C             1.00      1 F:z2x           7
                        (     109.271 eV)
   180     180       --         4.016 au  C             1.00      1 F:z2y           7
                        (     109.271 eV)
   181     181       --         4.016 au  C             1.00      1 F:x             7
                        (     109.271 eV)
   182     182       --         4.016 au  C             1.00      1 F:y             7
                        (     109.271 eV)
   183     183      2.000     -10.066 au  C             1.00      1 S               8
                        (    -273.921 eV)
   184     184      2.000      -0.501 au  C             1.00      2 S               8
                        (     -13.620 eV)
   185     185       --         0.373 au  C             1.00      3 S               8
                        (      10.158 eV)
   186     186       --         5.405 au  C             1.00      4 S               8
                        (     147.073 eV)
   187     187       --        49.848 au  C             1.00      5 S               8
                        (    1356.422 eV)
   188     188      0.667      -0.193 au  C             1.00      1 P:x             8
                        (      -5.239 eV)
   189     189       --         0.169 au  C             1.00      2 P:x             8
                        (       4.589 eV)
   190     190       --         2.013 au  C             1.00      3 P:x             8
                        (      54.789 eV)
   191     191      0.667      -0.193 au  C             1.00      1 P:y             8
                        (      -5.239 eV)
   192     192       --         0.169 au  C             1.00      2 P:y             8
                        (       4.589 eV)
   193     193       --         2.013 au  C             1.00      3 P:y             8
                        (      54.789 eV)
   194     194      0.667      -0.193 au  C             1.00      1 P:z             8
                        (      -5.239 eV)
   195     195       --         0.169 au  C             1.00      2 P:z             8
                        (       4.589 eV)
   196     196       --         2.013 au  C             1.00      3 P:z             8
                        (      54.789 eV)
   197     197       --         1.243 au  C             1.00      1 D:z2            8
                        (      33.824 eV)
   198     198       --         1.243 au  C             1.00      1 D:x2-y2         8
                        (      33.824 eV)
   199     199       --         1.243 au  C             1.00      1 D:xy            8
                        (      33.824 eV)
   200     200       --         1.243 au  C             1.00      1 D:xz            8
                        (      33.824 eV)
   201     201       --         1.243 au  C             1.00      1 D:yz            8
                        (      33.824 eV)
   202     202       --         4.016 au  C             1.00      1 F:z3            8
                        (     109.271 eV)
   203     203       --         4.016 au  C             1.00      1 F:z             8
                        (     109.271 eV)
   204     204       --         4.016 au  C             1.00      1 F:xyz           8
                        (     109.271 eV)
   205     205       --         4.016 au  C             1.00      1 F:z2x           8
                        (     109.271 eV)
   206     206       --         4.016 au  C             1.00      1 F:z2y           8
                        (     109.271 eV)
   207     207       --         4.016 au  C             1.00      1 F:x             8
                        (     109.271 eV)
   208     208       --         4.016 au  C             1.00      1 F:y             8
                        (     109.271 eV)
   209     209      2.000    -101.116 au  Cl            1.00      1 S               9
                        (   -2751.516 eV)
   210     210      2.000      -9.276 au  Cl            1.00      2 S               9
                        (    -252.419 eV)
   211     211      2.000      -0.754 au  Cl            1.00      3 S               9
                        (     -20.523 eV)
   212     212       --         0.194 au  Cl            1.00      4 S               9
                        (       5.292 eV)
   213     213       --         1.998 au  Cl            1.00      5 S               9
                        (      54.377 eV)
   214     214       --        12.618 au  Cl            1.00      6 S               9
                        (     343.355 eV)
   215     215       --       205.328 au  Cl            1.00      7 S               9
                        (    5587.258 eV)
   216     216      2.000      -7.038 au  Cl            1.00      1 P:x             9
                        (    -191.503 eV)
   217     217      1.667      -0.310 au  Cl            1.00      2 P:x             9
                        (      -8.439 eV)
   218     218       --         0.226 au  Cl            1.00      3 P:x             9
                        (       6.147 eV)
   219     219       --         2.102 au  Cl            1.00      4 P:x             9
                        (      57.194 eV)
   220     220       --        18.665 au  Cl            1.00      5 P:x             9
                        (     507.904 eV)
   221     221      2.000      -7.038 au  Cl            1.00      1 P:y             9
                        (    -191.503 eV)
   222     222      1.667      -0.310 au  Cl            1.00      2 P:y             9
                        (      -8.439 eV)
   223     223       --         0.226 au  Cl            1.00      3 P:y             9
                        (       6.147 eV)
   224     224       --         2.102 au  Cl            1.00      4 P:y             9
                        (      57.194 eV)
   225     225       --        18.665 au  Cl            1.00      5 P:y             9
                        (     507.904 eV)
   226     226      2.000      -7.038 au  Cl            1.00      1 P:z             9
                        (    -191.503 eV)
   227     227      1.667      -0.310 au  Cl            1.00      2 P:z             9
                        (      -8.439 eV)
   228     228       --         0.226 au  Cl            1.00      3 P:z             9
                        (       6.147 eV)
   229     229       --         2.102 au  Cl            1.00      4 P:z             9
                        (      57.194 eV)
   230     230       --        18.665 au  Cl            1.00      5 P:z             9
                        (     507.904 eV)
   231     231       --         0.388 au  Cl            1.00      1 D:z2            9
                        (      10.568 eV)
   232     232       --         0.388 au  Cl            1.00      1 D:x2-y2         9
                        (      10.568 eV)
   233     233       --         0.388 au  Cl            1.00      1 D:xy            9
                        (      10.568 eV)
   234     234       --         0.388 au  Cl            1.00      1 D:xz            9
                        (      10.568 eV)
   235     235       --         0.388 au  Cl            1.00      1 D:yz            9
                        (      10.568 eV)
   236     236       --         1.191 au  Cl            1.00      1 F:z3            9
                        (      32.399 eV)
   237     237       --         1.191 au  Cl            1.00      1 F:z             9
                        (      32.399 eV)
   238     238       --         1.191 au  Cl            1.00      1 F:xyz           9
                        (      32.399 eV)
   239     239       --         1.191 au  Cl            1.00      1 F:z2x           9
                        (      32.399 eV)
   240     240       --         1.191 au  Cl            1.00      1 F:z2y           9
                        (      32.399 eV)
   241     241       --         1.191 au  Cl            1.00      1 F:x             9
                        (      32.399 eV)
   242     242       --         1.191 au  Cl            1.00      1 F:y             9
                        (      32.399 eV)
   243     243      2.000    -101.116 au  Cl            1.00      1 S              10
                        (   -2751.516 eV)
   244     244      2.000      -9.276 au  Cl            1.00      2 S              10
                        (    -252.419 eV)
   245     245      2.000      -0.754 au  Cl            1.00      3 S              10
                        (     -20.523 eV)
   246     246       --         0.194 au  Cl            1.00      4 S              10
                        (       5.292 eV)
   247     247       --         1.998 au  Cl            1.00      5 S              10
                        (      54.377 eV)
   248     248       --        12.618 au  Cl            1.00      6 S              10
                        (     343.355 eV)
   249     249       --       205.328 au  Cl            1.00      7 S              10
                        (    5587.258 eV)
   250     250      2.000      -7.038 au  Cl            1.00      1 P:x            10
                        (    -191.503 eV)
   251     251      1.667      -0.310 au  Cl            1.00      2 P:x            10
                        (      -8.439 eV)
   252     252       --         0.226 au  Cl            1.00      3 P:x            10
                        (       6.147 eV)
   253     253       --         2.102 au  Cl            1.00      4 P:x            10
                        (      57.194 eV)
   254     254       --        18.665 au  Cl            1.00      5 P:x            10
                        (     507.904 eV)
   255     255      2.000      -7.038 au  Cl            1.00      1 P:y            10
                        (    -191.503 eV)
   256     256      1.667      -0.310 au  Cl            1.00      2 P:y            10
                        (      -8.439 eV)
   257     257       --         0.226 au  Cl            1.00      3 P:y            10
                        (       6.147 eV)
   258     258       --         2.102 au  Cl            1.00      4 P:y            10
                        (      57.194 eV)
   259     259       --        18.665 au  Cl            1.00      5 P:y            10
                        (     507.904 eV)
   260     260      2.000      -7.038 au  Cl            1.00      1 P:z            10
                        (    -191.503 eV)
   261     261      1.667      -0.310 au  Cl            1.00      2 P:z            10
                        (      -8.439 eV)
   262     262       --         0.226 au  Cl            1.00      3 P:z            10
                        (       6.147 eV)
   263     263       --         2.102 au  Cl            1.00      4 P:z            10
                        (      57.194 eV)
   264     264       --        18.665 au  Cl            1.00      5 P:z            10
                        (     507.904 eV)
   265     265       --         0.388 au  Cl            1.00      1 D:z2           10
                        (      10.568 eV)
   266     266       --         0.388 au  Cl            1.00      1 D:x2-y2        10
                        (      10.568 eV)
   267     267       --         0.388 au  Cl            1.00      1 D:xy           10
                        (      10.568 eV)
   268     268       --         0.388 au  Cl            1.00      1 D:xz           10
                        (      10.568 eV)
   269     269       --         0.388 au  Cl            1.00      1 D:yz           10
                        (      10.568 eV)
   270     270       --         1.191 au  Cl            1.00      1 F:z3           10
                        (      32.399 eV)
   271     271       --         1.191 au  Cl            1.00      1 F:z            10
                        (      32.399 eV)
   272     272       --         1.191 au  Cl            1.00      1 F:xyz          10
                        (      32.399 eV)
   273     273       --         1.191 au  Cl            1.00      1 F:z2x          10
                        (      32.399 eV)
   274     274       --         1.191 au  Cl            1.00      1 F:z2y          10
                        (      32.399 eV)
   275     275       --         1.191 au  Cl            1.00      1 F:x            10
                        (      32.399 eV)
   276     276       --         1.191 au  Cl            1.00      1 F:y            10
                        (      32.399 eV)
   277     277      1.000      -0.240 au  H             1.00      1 S              11
                        (      -6.532 eV)
   278     278       --         0.088 au  H             1.00      2 S              11
                        (       2.394 eV)
   279     279       --         1.502 au  H             1.00      3 S              11
                        (      40.869 eV)
   280     280       --         0.406 au  H             1.00      1 P:x            11
                        (      11.051 eV)
   281     281       --         0.406 au  H             1.00      1 P:y            11
                        (      11.051 eV)
   282     282       --         0.406 au  H             1.00      1 P:z            11
                        (      11.051 eV)
   283     283       --         2.569 au  H             1.00      1 D:z2           11
                        (      69.917 eV)
   284     284       --         2.569 au  H             1.00      1 D:x2-y2        11
                        (      69.917 eV)
   285     285       --         2.569 au  H             1.00      1 D:xy           11
                        (      69.917 eV)
   286     286       --         2.569 au  H             1.00      1 D:xz           11
                        (      69.917 eV)
   287     287       --         2.569 au  H             1.00      1 D:yz           11
                        (      69.917 eV)
   288     288      1.000      -0.240 au  H             1.00      1 S              12
                        (      -6.532 eV)
   289     289       --         0.088 au  H             1.00      2 S              12
                        (       2.394 eV)
   290     290       --         1.502 au  H             1.00      3 S              12
                        (      40.869 eV)
   291     291       --         0.406 au  H             1.00      1 P:x            12
                        (      11.051 eV)
   292     292       --         0.406 au  H             1.00      1 P:y            12
                        (      11.051 eV)
   293     293       --         0.406 au  H             1.00      1 P:z            12
                        (      11.051 eV)
   294     294       --         2.569 au  H             1.00      1 D:z2           12
                        (      69.917 eV)
   295     295       --         2.569 au  H             1.00      1 D:x2-y2        12
                        (      69.917 eV)
   296     296       --         2.569 au  H             1.00      1 D:xy           12
                        (      69.917 eV)
   297     297       --         2.569 au  H             1.00      1 D:xz           12
                        (      69.917 eV)
   298     298       --         2.569 au  H             1.00      1 D:yz           12
                        (      69.917 eV)
   299     299      1.000      -0.240 au  H             1.00      1 S              13
                        (      -6.532 eV)
   300     300       --         0.088 au  H             1.00      2 S              13
                        (       2.394 eV)
   301     301       --         1.502 au  H             1.00      3 S              13
                        (      40.869 eV)
   302     302       --         0.406 au  H             1.00      1 P:x            13
                        (      11.051 eV)
   303     303       --         0.406 au  H             1.00      1 P:y            13
                        (      11.051 eV)
   304     304       --         0.406 au  H             1.00      1 P:z            13
                        (      11.051 eV)
   305     305       --         2.569 au  H             1.00      1 D:z2           13
                        (      69.917 eV)
   306     306       --         2.569 au  H             1.00      1 D:x2-y2        13
                        (      69.917 eV)
   307     307       --         2.569 au  H             1.00      1 D:xy           13
                        (      69.917 eV)
   308     308       --         2.569 au  H             1.00      1 D:xz           13
                        (      69.917 eV)
   309     309       --         2.569 au  H             1.00      1 D:yz           13
                        (      69.917 eV)
   310     310      1.000      -0.240 au  H             1.00      1 S              14
                        (      -6.532 eV)
   311     311       --         0.088 au  H             1.00      2 S              14
                        (       2.394 eV)
   312     312       --         1.502 au  H             1.00      3 S              14
                        (      40.869 eV)
   313     313       --         0.406 au  H             1.00      1 P:x            14
                        (      11.051 eV)
   314     314       --         0.406 au  H             1.00      1 P:y            14
                        (      11.051 eV)
   315     315       --         0.406 au  H             1.00      1 P:z            14
                        (      11.051 eV)
   316     316       --         2.569 au  H             1.00      1 D:z2           14
                        (      69.917 eV)
   317     317       --         2.569 au  H             1.00      1 D:x2-y2        14
                        (      69.917 eV)
   318     318       --         2.569 au  H             1.00      1 D:xy           14
                        (      69.917 eV)
   319     319       --         2.569 au  H             1.00      1 D:xz           14
                        (      69.917 eV)
   320     320       --         2.569 au  H             1.00      1 D:yz           14
                        (      69.917 eV)
   321     321      1.000      -0.240 au  H             1.00      1 S              15
                        (      -6.532 eV)
   322     322       --         0.088 au  H             1.00      2 S              15
                        (       2.394 eV)
   323     323       --         1.502 au  H             1.00      3 S              15
                        (      40.869 eV)
   324     324       --         0.406 au  H             1.00      1 P:x            15
                        (      11.051 eV)
   325     325       --         0.406 au  H             1.00      1 P:y            15
                        (      11.051 eV)
   326     326       --         0.406 au  H             1.00      1 P:z            15
                        (      11.051 eV)
   327     327       --         2.569 au  H             1.00      1 D:z2           15
                        (      69.917 eV)
   328     328       --         2.569 au  H             1.00      1 D:x2-y2        15
                        (      69.917 eV)
   329     329       --         2.569 au  H             1.00      1 D:xy           15
                        (      69.917 eV)
   330     330       --         2.569 au  H             1.00      1 D:xz           15
                        (      69.917 eV)
   331     331       --         2.569 au  H             1.00      1 D:yz           15
                        (      69.917 eV)
   332     332      1.000      -0.240 au  H             1.00      1 S              16
                        (      -6.532 eV)
   333     333       --         0.088 au  H             1.00      2 S              16
                        (       2.394 eV)
   334     334       --         1.502 au  H             1.00      3 S              16
                        (      40.869 eV)
   335     335       --         0.406 au  H             1.00      1 P:x            16
                        (      11.051 eV)
   336     336       --         0.406 au  H             1.00      1 P:y            16
                        (      11.051 eV)
   337     337       --         0.406 au  H             1.00      1 P:z            16
                        (      11.051 eV)
   338     338       --         2.569 au  H             1.00      1 D:z2           16
                        (      69.917 eV)
   339     339       --         2.569 au  H             1.00      1 D:x2-y2        16
                        (      69.917 eV)
   340     340       --         2.569 au  H             1.00      1 D:xy           16
                        (      69.917 eV)
   341     341       --         2.569 au  H             1.00      1 D:xz           16
                        (      69.917 eV)
   342     342       --         2.569 au  H             1.00      1 D:yz           16
                        (      69.917 eV)
   343     343      1.000      -0.240 au  H             1.00      1 S              17
                        (      -6.532 eV)
   344     344       --         0.088 au  H             1.00      2 S              17
                        (       2.394 eV)
   345     345       --         1.502 au  H             1.00      3 S              17
                        (      40.869 eV)
   346     346       --         0.406 au  H             1.00      1 P:x            17
                        (      11.051 eV)
   347     347       --         0.406 au  H             1.00      1 P:y            17
                        (      11.051 eV)
   348     348       --         0.406 au  H             1.00      1 P:z            17
                        (      11.051 eV)
   349     349       --         2.569 au  H             1.00      1 D:z2           17
                        (      69.917 eV)
   350     350       --         2.569 au  H             1.00      1 D:x2-y2        17
                        (      69.917 eV)
   351     351       --         2.569 au  H             1.00      1 D:xy           17
                        (      69.917 eV)
   352     352       --         2.569 au  H             1.00      1 D:xz           17
                        (      69.917 eV)
   353     353       --         2.569 au  H             1.00      1 D:yz           17
                        (      69.917 eV)
   354     354      1.000      -0.240 au  H             1.00      1 S              18
                        (      -6.532 eV)
   355     355       --         0.088 au  H             1.00      2 S              18
                        (       2.394 eV)
   356     356       --         1.502 au  H             1.00      3 S              18
                        (      40.869 eV)
   357     357       --         0.406 au  H             1.00      1 P:x            18
                        (      11.051 eV)
   358     358       --         0.406 au  H             1.00      1 P:y            18
                        (      11.051 eV)
   359     359       --         0.406 au  H             1.00      1 P:z            18
                        (      11.051 eV)
   360     360       --         2.569 au  H             1.00      1 D:z2           18
                        (      69.917 eV)
   361     361       --         2.569 au  H             1.00      1 D:x2-y2        18
                        (      69.917 eV)
   362     362       --         2.569 au  H             1.00      1 D:xy           18
                        (      69.917 eV)
   363     363       --         2.569 au  H             1.00      1 D:xz           18
                        (      69.917 eV)
   364     364       --         2.569 au  H             1.00      1 D:yz           18
                        (      69.917 eV)
   365     365      1.000      -0.240 au  H             1.00      1 S              19
                        (      -6.532 eV)
   366     366       --         0.088 au  H             1.00      2 S              19
                        (       2.394 eV)
   367     367       --         1.502 au  H             1.00      3 S              19
                        (      40.869 eV)
   368     368       --         0.406 au  H             1.00      1 P:x            19
                        (      11.051 eV)
   369     369       --         0.406 au  H             1.00      1 P:y            19
                        (      11.051 eV)
   370     370       --         0.406 au  H             1.00      1 P:z            19
                        (      11.051 eV)
   371     371       --         2.569 au  H             1.00      1 D:z2           19
                        (      69.917 eV)
   372     372       --         2.569 au  H             1.00      1 D:x2-y2        19
                        (      69.917 eV)
   373     373       --         2.569 au  H             1.00      1 D:xy           19
                        (      69.917 eV)
   374     374       --         2.569 au  H             1.00      1 D:xz           19
                        (      69.917 eV)
   375     375       --         2.569 au  H             1.00      1 D:yz           19
                        (      69.917 eV)
   376     376      1.000      -0.240 au  H             1.00      1 S              20
                        (      -6.532 eV)
   377     377       --         0.088 au  H             1.00      2 S              20
                        (       2.394 eV)
   378     378       --         1.502 au  H             1.00      3 S              20
                        (      40.869 eV)
   379     379       --         0.406 au  H             1.00      1 P:x            20
                        (      11.051 eV)
   380     380       --         0.406 au  H             1.00      1 P:y            20
                        (      11.051 eV)
   381     381       --         0.406 au  H             1.00      1 P:z            20
                        (      11.051 eV)
   382     382       --         2.569 au  H             1.00      1 D:z2           20
                        (      69.917 eV)
   383     383       --         2.569 au  H             1.00      1 D:x2-y2        20
                        (      69.917 eV)
   384     384       --         2.569 au  H             1.00      1 D:xy           20
                        (      69.917 eV)
   385     385       --         2.569 au  H             1.00      1 D:xz           20
                        (      69.917 eV)
   386     386       --         2.569 au  H             1.00      1 D:yz           20
                        (      69.917 eV)



 ================================
 (Slater-type)  F U N C T I O N S  ***  (Basis and Fit)  ***
 ================================
  

 Atom Type    1  (C)
 ==============

 Valence Basis Sets:  10
 -----------------------
   1 S    7.680000
   1 S    5.000000
   2 S    1.280000
   2 S    2.100000
   2 S    4.600000
   2 P    0.820000
   2 P    1.480000
   2 P    2.940000
   3 D    2.200000
   4 F    3.300000

 Atom Type    2  (Cl)
 ==============

 Valence Basis Sets:  14
 -----------------------
   1 S   20.300000
   1 S   15.250000
   2 S    6.250000
   2 S    4.450000
   2 P    8.850000
   2 P    5.050000
   3 S    3.450000
   3 S    2.300000
   3 S    1.600000
   3 P    3.350000
   3 P    2.050000
   3 P    1.200000
   3 D    2.000000
   4 F    2.000000

 Atom Type    3  (H)
 ==============

 Valence Basis Sets:   5
 -----------------------
   1 S    0.690000
   1 S    0.920000
   1 S    1.580000
   2 P    1.250000
   3 D    2.500000


 BAS: List of all Elementary Cartesian Basis Functions
 =====================================================

 The numbering in the list below (to the right of the function characteristics) is referred
 to in print-outs of MO eigenvectors and Mulliken populations in the BAS representation
 (as contrasted to the SFO representation).

 Notes:
 1. The functions are characterized by a polynomial prefactor (powers of x,y,z and r) and
    an exponential decay factor alpha.
 2. Since the basis sets are specific for an atom TYPE, the individual functions occur on
    all atoms of that type.
 3. The word 'Core' in the left margin signals that it is a Core Function (CF) : not a
    degree of freedom in the valence set, but only used to ensure orthogonalization of
    the other valence basis functions on the frozen Core Orbitals.


 (power of) X  Y  Z  R     Alpha  on Atom
            ==========     =====     ==========

 C                                    1    2    3    4    5    6    7    8
                                  ---------------------------------------------------------------------------
            0  0  0  0     7.680      1   31   61   91  121  151  181  211
            0  0  0  0     5.000      2   32   62   92  122  152  182  212
            0  0  0  1     1.280      3   33   63   93  123  153  183  213
            0  0  0  1     2.100      4   34   64   94  124  154  184  214
            0  0  0  1     4.600      5   35   65   95  125  155  185  215
            1  0  0  0     0.820      6   36   66   96  126  156  186  216
            0  1  0  0     0.820      7   37   67   97  127  157  187  217
            0  0  1  0     0.820      8   38   68   98  128  158  188  218
            1  0  0  0     1.480      9   39   69   99  129  159  189  219
            0  1  0  0     1.480     10   40   70  100  130  160  190  220
            0  0  1  0     1.480     11   41   71  101  131  161  191  221
            1  0  0  0     2.940     12   42   72  102  132  162  192  222
            0  1  0  0     2.940     13   43   73  103  133  163  193  223
            0  0  1  0     2.940     14   44   74  104  134  164  194  224
            2  0  0  0     2.200     15   45   75  105  135  165  195  225
            1  1  0  0     2.200     16   46   76  106  136  166  196  226
            1  0  1  0     2.200     17   47   77  107  137  167  197  227
            0  2  0  0     2.200     18   48   78  108  138  168  198  228
            0  1  1  0     2.200     19   49   79  109  139  169  199  229
            0  0  2  0     2.200     20   50   80  110  140  170  200  230
            3  0  0  0     3.300     21   51   81  111  141  171  201  231
            2  1  0  0     3.300     22   52   82  112  142  172  202  232
            2  0  1  0     3.300     23   53   83  113  143  173  203  233
            1  2  0  0     3.300     24   54   84  114  144  174  204  234
            1  1  1  0     3.300     25   55   85  115  145  175  205  235
            1  0  2  0     3.300     26   56   86  116  146  176  206  236
            0  3  0  0     3.300     27   57   87  117  147  177  207  237
            0  2  1  0     3.300     28   58   88  118  148  178  208  238
            0  1  2  0     3.300     29   59   89  119  149  179  209  239
            0  0  3  0     3.300     30   60   90  120  150  180  210  240

 Cl                                   9   10
                                  ---------------------------------------------------------------------------
            0  0  0  0    20.300    241  279
            0  0  0  0    15.250    242  280
            0  0  0  1     6.250    243  281
            0  0  0  1     4.450    244  282
            1  0  0  0     8.850    245  283
            0  1  0  0     8.850    246  284
            0  0  1  0     8.850    247  285
            1  0  0  0     5.050    248  286
            0  1  0  0     5.050    249  287
            0  0  1  0     5.050    250  288
            0  0  0  2     3.450    251  289
            0  0  0  2     2.300    252  290
            0  0  0  2     1.600    253  291
            1  0  0  1     3.350    254  292
            0  1  0  1     3.350    255  293
            0  0  1  1     3.350    256  294
            1  0  0  1     2.050    257  295
            0  1  0  1     2.050    258  296
            0  0  1  1     2.050    259  297
            1  0  0  1     1.200    260  298
            0  1  0  1     1.200    261  299
            0  0  1  1     1.200    262  300
            2  0  0  0     2.000    263  301
            1  1  0  0     2.000    264  302
            1  0  1  0     2.000    265  303
            0  2  0  0     2.000    266  304
            0  1  1  0     2.000    267  305
            0  0  2  0     2.000    268  306
            3  0  0  0     2.000    269  307
            2  1  0  0     2.000    270  308
            2  0  1  0     2.000    271  309
            1  2  0  0     2.000    272  310
            1  1  1  0     2.000    273  311
            1  0  2  0     2.000    274  312
            0  3  0  0     2.000    275  313
            0  2  1  0     2.000    276  314
            0  1  2  0     2.000    277  315
            0  0  3  0     2.000    278  316

 H                                   11   12   13   14   15   16   17   18   19   20
                                  ---------------------------------------------------------------------------
            0  0  0  0     0.690    317  329  341  353  365  377  389  401  413  425
            0  0  0  0     0.920    318  330  342  354  366  378  390  402  414  426
            0  0  0  0     1.580    319  331  343  355  367  379  391  403  415  427
            1  0  0  0     1.250    320  332  344  356  368  380  392  404  416  428
            0  1  0  0     1.250    321  333  345  357  369  381  393  405  417  429
            0  0  1  0     1.250    322  334  346  358  370  382  394  406  418  430
            2  0  0  0     2.500    323  335  347  359  371  383  395  407  419  431
            1  1  0  0     2.500    324  336  348  360  372  384  396  408  420  432
            1  0  1  0     2.500    325  337  349  361  373  385  397  409  421  433
            0  2  0  0     2.500    326  338  350  362  374  386  398  410  422  434
            0  1  1  0     2.500    327  339  351  363  375  387  399  411  423  435
            0  0  2  0     2.500    328  340  352  364  376  388  400  412  424  436

 Total number of charge fitting functions (nprimf)      1384
 Total number of Cartesian basis functions (naos)        436
 Total number of Cartesian core functions  (ncos)          0

 ***************************************************************************************************



                                              ***********************
                                              *  T E C H N I C A L  *
                                              ***********************
  



 =============================================================
 P A R A L L E L I Z A T I O N  and  V E C T O R I Z A T I O N
 =============================================================
  
 Nr of parallel processes:                                1
 Maximum vector length in NumInt loops:                 128



 =====================
 S C F   U P D A T E S
 =====================
  
 Max. nr. of cycles:                               200
 Convergence criterion:                              0.0000010000
   secondary criterion:                              0.0010000000

 Mix parameter (when DIIS does not apply):           0.2000000000
 Mixed ADIIS+SDIIS will be used                  
    Max number of expansion vectors:                10
    Pure ADIIS when Max([F,P]) is above              0.1000000000
    Pure SDIIS when Max([F,P]) is below              0.0010000000
 Automatic ElectronSmearing (in case of problematic SCF convergence) disabled



 =================
 P R E C I S I O N  ***  (General: NumInt, NeglectFunctionTails, ...)  ***
 =================
  

 NumInt:           Target precision:                 4.0000000000
 -------           Initial precision:                4.0000000000
                   Min. precision (optimization):    4.0000000000

 Neglect Functions:          Basis functions:        0.1000000000E-05
 ------------------          Fit functions:          0.1000000000E-05



 ===========================
 L I N E A R   S C A L I N G
 ===========================
  

 Cut-off radii density fit:                        0.1000000000E-07
 Overlap cut-off criterion AO matrix elements:     0.1000000000E-05
 Cut-offs for Coulomb potential and fitted density:0.1000000000E-07
 Cut-off criterion for Coulomb multipole terms:    0.1000000000E-07
 Progressive Convergence parameter:                 0.000000000    
 ***************************************************************************************************



                                            ***************************
                                            *  C O M P U T A T I O N  *
                                            ***************************
  

 Number of elements of the density matrix on this node (used, total):     95266     95266



 ===========================================
 Numerical Integration : Fuzzy Cells (Becke)
 ===========================================
  
 Becke grid quality: NORMAL         
  
 Lebedev angular grid order:             min:  11 max:  23
 Nr. of radial points:                   min:  46 max:  67

 Total nr. of points:     133993
 Nr. of blocks:             1047
 Block length:               128
 Nr. of dummy points:         23


 Test of Precision of the Numerical Integration Grid
 ===================================================

 Integral of the Total Core Density:                   0.00000000000000



 ========================
 Density Fitting (zlmFit)
 ========================
  
 ZlmFit Fit Quality: NORMAL         
  
 Max L-expansion:                        min:   6 max:   7
 Nr. of radial interpolation points:     min:  39 max:  60



 =====
 S C F  ***  ScaSCF  ***
 =====
  
 Initial density matrix is calculated as sum of fragments

 CYCLE    1
 SCF Error: norm([F,P])=      7.290546956728, max([F,P])=      1.143536676595
 orbitals (Q,E):
 ---------------
 A :37...56          ( 2.00    -0.4819)  ( 2.00    -0.4782)  ( 2.00    -0.4635)  ( 2.00    -0.4535)
                     ( 2.00    -0.3932)  ( 2.00    -0.3879)  ( 2.00    -0.3416)  ( 2.00    -0.3273)
                     ( 2.00    -0.3258)  ( 2.00    -0.3089)  ( 0.00    -0.2053)  ( 0.00    -0.1604)
                     ( 0.00    -0.1117)  ( 0.00    -0.0807)  ( 0.00    -0.0732)  ( 0.00    -0.0548)
                     ( 0.00    -0.0515)  ( 0.00    -0.0337)  ( 0.00    -0.0318)  ( 0.00    -0.0301)

 CYCLE    2
   MIX coefficients:  0.8000  0.2000
 SCF Error: norm([F,P])=      1.223021013657, max([F,P])=      0.210606160519
 orbitals (Q,E):
 ---------------
 A :37...47          ( 2.00    -0.4234)  ( 2.00    -0.4055)  ( 2.00    -0.4009)  ( 2.00    -0.3993)
                     ( 2.00    -0.3393)  ( 2.00    -0.3369)  ( 2.00    -0.3219)  ( 2.00    -0.3102)
                     ( 2.00    -0.3092)  ( 2.00    -0.2976)  ( 0.00    -0.1497)

 CYCLE    3
  SDIIS (wt  0.000): -0.9476  1.9476
 A-DIIS (wt  1.000):  0.0000  1.0000
  DIIS coefficients:  0.0000  1.0000
 SCF Error: norm([F,P])=      0.653038632832, max([F,P])=      0.099310862848
 orbitals (Q,E):
 ---------------
 A :37...47          ( 2.00    -0.2732)  ( 2.00    -0.2636)  ( 2.00    -0.2458)  ( 2.00    -0.2424)
                     ( 2.00    -0.2406)  ( 2.00    -0.2184)  ( 2.00    -0.2049)  ( 2.00    -0.1960)
                     ( 2.00    -0.1619)  ( 2.00    -0.1545)  ( 0.00    -0.0304)

 CYCLE    4
  SDIIS (wt  0.000):  0.2610  0.2606  0.4784
 A-DIIS (wt  1.000):  0.0000  0.6813  0.3187
  DIIS coefficients:  0.0000  0.6813  0.3187
 SCF Error: norm([F,P])=      1.013893070191, max([F,P])=      0.199302367201
 orbitals (Q,E):
 ---------------
 A :37...47          ( 2.00    -0.3236)  ( 2.00    -0.3020)  ( 2.00    -0.2938)  ( 2.00    -0.2872)
                     ( 2.00    -0.2746)  ( 2.00    -0.2672)  ( 2.00    -0.2536)  ( 2.00    -0.2449)
                     ( 2.00    -0.2284)  ( 2.00    -0.2261)  ( 0.00    -0.0709)

 CYCLE    5
  SDIIS (wt  0.742): -0.1102  0.4277  0.0687  0.6138
 A-DIIS (wt  0.258):  0.0000  0.0000  0.0000  1.0000
  DIIS coefficients: -0.0817  0.3172  0.0509  0.7136
 SCF Error: norm([F,P])=      0.175232958861, max([F,P])=      0.026579789444
 orbitals (Q,E):
 ---------------
 A :37...47          ( 2.00    -0.3349)  ( 2.00    -0.3138)  ( 2.00    -0.3062)  ( 2.00    -0.3022)
                     ( 2.00    -0.2900)  ( 2.00    -0.2820)  ( 2.00    -0.2693)  ( 2.00    -0.2612)
[...]
                                    3.52%     2 S               2.394  0.00    18 H
                                    3.37%     1 P:z            -5.239  0.67     4 C
                                    3.17%     2 P:z             4.589  0.00     8 C
                                    3.14%     3 P:z             6.147  0.00     9 Cl
                                    3.05%     1 S              -6.532  1.00    18 H
                                   -2.96%     2 P:x             4.589  0.00     7 C
                                    2.85%     2 S               2.394  0.00    15 H
                                   -2.77%     2 P:z             4.589  0.00     4 C
                                    2.73%     1 P:y            -5.239  0.67     6 C
                                    2.72%     1 S              -6.532  1.00    15 H
                                    2.57%     1 P:x            -5.239  0.67     6 C
                                   -2.13%     2 S               2.394  0.00    12 H
                                   -2.07%     2 S               2.394  0.00    17 H
                                    1.93%     1 S              -6.532  1.00    11 H
                                   -1.87%     2 P:x             4.589  0.00     6 C
                                    1.80%     2 P:z             4.589  0.00     6 C
                                    1.77%     2 S             -13.620  2.00     5 C
                                    1.70%     3 S              40.869  0.00    17 H
                                    1.69%     1 P:x            -5.239  0.67     8 C
                                   -1.59%     3 S              10.158  0.00     5 C
                                    1.52%     2 S               2.394  0.00    20 H
                                    1.41%     2 P:x             4.589  0.00     1 C
                                    1.30%     1 S              -6.532  1.00    14 H
                                   -1.24%     2 P:y             4.589  0.00     4 C
                                    1.17%     2 P:x             4.589  0.00     4 C
                                    1.17%     1 P:y            -5.239  0.67     2 C
                                    1.05%     3 S              40.869  0.00    13 H
       3.114  0.00    62 A         12.59%     1 P:x            -5.239  0.67     7 C
                                   11.67%     1 P:x            -5.239  0.67     8 C
                                    9.49%     2 P:z             4.589  0.00     4 C
                                    8.96%     2 P:y             4.589  0.00     7 C
                                   -7.87%     2 P:z             4.589  0.00     5 C
                                    7.34%     1 P:y            -5.239  0.67     8 C
                                    6.65%     1 S              -6.532  1.00    17 H
                                    5.95%     1 P:z            -5.239  0.67     4 C
                                   -5.65%     2 S               2.394  0.00    17 H
                                   -4.73%     3 S              10.158  0.00     1 C
                                   -4.64%     2 P:z             4.589  0.00     3 C
                                    4.60%     1 P:y            -5.239  0.67     7 C
                                    4.56%     2 P:x             4.589  0.00     2 C
                                   -4.42%     3 S              10.158  0.00     8 C
                                    4.12%     1 S              -6.532  1.00    11 H
                                    3.89%     1 S              -6.532  1.00    16 H
                                    3.55%     2 S               2.394  0.00    16 H
                                    3.48%     1 S              -6.532  1.00    20 H
                                    3.39%     2 P:x             4.589  0.00     3 C
                                    3.11%     2 P:x             4.589  0.00     4 C
                                    3.10%     1 S              -6.532  1.00    15 H
                                   -3.07%     4 S               5.292  0.00     9 Cl
                                    2.99%     1 P:x            -5.239  0.67     4 C
                                    2.81%     2 S               2.394  0.00    20 H
                                    2.79%     2 S               2.394  0.00    11 H
                                    2.78%     2 S             -13.620  2.00     7 C
                                    2.74%     2 P:y             4.589  0.00     8 C
                                   -2.38%     3 S              10.158  0.00     7 C
                                   -2.32%     4 S               5.292  0.00    10 Cl
                                    2.26%     2 P:x             4.589  0.00     8 C
                                    2.13%     2 P:z             4.589  0.00     2 C
                                    1.81%     2 P:x             4.589  0.00     6 C
                                   -1.73%     2 P:y             4.589  0.00     5 C
                                    1.72%     2 S             -13.620  2.00     8 C
                                    1.57%     2 P:x             4.589  0.00     7 C
                                    1.47%     1 P:y            -5.239  0.67     1 C
                                    1.39%     1 P:z            -5.239  0.67     3 C
                                   -1.38%     3 P:y             6.147  0.00    10 Cl
                                    1.30%     1 S              -6.532  1.00    18 H
                                    1.25%     1 S              -6.532  1.00    13 H
                                    1.23%     1 P:x            -5.239  0.67     6 C
                                    1.20%     2 S             -13.620  2.00     2 C
                                    1.15%     1 P:x            -5.239  0.67     5 C
                                   -1.12%     2 S               2.394  0.00    14 H
                                    1.10%     1 S              -6.532  1.00    14 H



 =======================================================================
 Electrostatic potential at the Nuclei due to electrons and other nuclei
 =======================================================================
  
         Atom                  Potential
         ----                  ---------
     1)   C                  14.77814917
     2)   C                  14.76972397
     3)   C                  14.74333329
     4)   C                  14.76576046
     5)   C                  14.77269582
     6)   C                  14.77388092
     7)   C                  14.76343120
     8)   C                  14.64616274
     9)   Cl                 64.86789012
    10)   Cl                 64.86983944
    11)   H                   1.08540524
    12)   H                   1.08861441
    13)   H                   1.10733828
    14)   H                   1.10533388
    15)   H                   1.11324791
    16)   H                   1.10943190
    17)   H                   1.11393498
    18)   H                   1.11093848
    19)   H                   1.09864415
    20)   H                   1.10294678
 Mulliken charges used for AMS results%charges...


    =====================
     CALCULATION RESULTS
    =====================

Energy (hartree)            -3.90373664


--------------
Atomic charges
--------------
  Index   Atom    Charge
      1      C   -0.0160
      2      C   -0.0142
      3      C    0.4156
      4      C    0.4388
      5      C    0.4377
      6      C    0.4191
      7      C    0.4272
      8      C    0.1087
      9     Cl   -0.1496
     10     Cl   -0.1515
     11      H   -0.1749
     12      H   -0.1787
     13      H   -0.1943
     14      H   -0.2005
     15      H   -0.2005
     16      H   -0.2235
     17      H   -0.1945
     18      H   -0.1974
     19      H   -0.1867
     20      H   -0.1649


Dipole moment vector    (Debye):    -4.47077725   -0.08558634   -0.01407112
              magnitude (Debye):     4.47161853


-----------------------
Molecular orbitals info
-----------------------
n orbitals:              386
n spin:                    1

Note: only printing virtual orbitals with
      energy smaller than HOMO + 100. eV

HOMO (eV):              -6.4547
LUMO (eV):              -2.1478
HOMO-LUMO gap (eV):      4.3069

   Index   Energy (eV)    Occupation
     259       93.2107         0.000       
     258       92.6431         0.000       
     257       92.1414         0.000       
     256       91.3083         0.000       
     255       90.2203         0.000       
     254       89.4441         0.000       
     253       89.1529         0.000       
     252       87.2563         0.000       
     251       86.5852         0.000       
     250       85.5967         0.000       
     249       84.9407         0.000       
     248       83.9483         0.000       
     247       83.5210         0.000       
     246       83.4287         0.000       
     245       82.4283         0.000       
     244       82.3175         0.000       
     243       82.2215         0.000       
     242       81.7539         0.000       
     241       80.6631         0.000       
     240       80.3619         0.000       
     239       79.8570         0.000       
     238       79.7625         0.000       
     237       79.0862         0.000       
     236       78.3722         0.000       
     235       77.9472         0.000       
     234       77.7644         0.000       
     233       77.1908         0.000       
     232       76.3789         0.000       
     231       76.1153         0.000       
     230       75.4714         0.000       
     229       75.3114         0.000       
     228       74.6962         0.000       
     227       74.1257         0.000       
     226       73.7045         0.000       
     225       73.3619         0.000       
     224       72.3625         0.000       
     223       71.5322         0.000       
     222       71.3798         0.000       
     221       70.1602         0.000       
     220       68.6102         0.000       
     219       67.9761         0.000       
     218       67.1478         0.000       
     217       66.9302         0.000       
     216       66.4802         0.000       
     215       65.9245         0.000       
     214       64.9842         0.000       
     213       64.8551         0.000       
     212       64.5169         0.000       
     211       63.8114         0.000       
     210       63.2013         0.000       
     209       62.8544         0.000       
     208       62.5647         0.000       
     207       62.0186         0.000       
     206       61.2018         0.000       
     205       60.4558         0.000       
     204       59.2865         0.000       
     203       58.7049         0.000       
     202       58.4346         0.000       
     201       57.4360         0.000       
     200       56.6863         0.000       
     199       56.5122         0.000       
     198       56.1345         0.000       
     197       55.1352         0.000       
     196       55.0676         0.000       
     195       54.4650         0.000       
     194       53.6513         0.000       
     193       52.6897         0.000       
     192       52.5869         0.000       
     191       51.8661         0.000       
     190       50.9937         0.000       
     189       50.8229         0.000       
     188       49.8838         0.000       
     187       49.5407         0.000       
     186       48.9569         0.000       
     185       47.6421         0.000       
     184       47.4295         0.000       
     183       47.1649         0.000       
     182       46.7042         0.000       
     181       45.8893         0.000       
     180       45.2212         0.000       
     179       45.0414         0.000       
     178       44.2725         0.000       
     177       43.5958         0.000       
     176       43.4213         0.000       
     175       42.6656         0.000       
     174       41.8035         0.000       
     173       41.1718         0.000       
     172       40.5358         0.000       
     171       40.1592         0.000       
     170       39.9147         0.000       
     169       39.2766         0.000       
     168       38.8793         0.000       
     167       38.6096         0.000       
     166       38.3297         0.000       
     165       37.8835         0.000       
     164       37.4115         0.000       
     163       37.1856         0.000       
     162       37.0444         0.000       
     161       36.9041         0.000       
     160       36.3688         0.000       
     159       35.9458         0.000       
     158       35.7990         0.000       
     157       35.7173         0.000       
     156       35.5175         0.000       
     155       35.0837         0.000       
     154       34.9420         0.000       
     153       34.7241         0.000       
     152       34.2323         0.000       
     151       34.1284         0.000       
     150       33.9403         0.000       
     149       33.6099         0.000       
     148       33.1145         0.000       
     147       32.7945         0.000       
     146       32.4541         0.000       
     145       32.3702         0.000       
     144       31.9633         0.000       
     143       31.3368         0.000       
     142       31.2690         0.000       
     141       30.7268         0.000       
     140       30.3279         0.000       
     139       30.2292         0.000       
     138       29.7846         0.000       
     137       29.1730         0.000       
     136       28.9156         0.000       
     135       28.4109         0.000       
     134       28.0635         0.000       
     133       27.9323         0.000       
     132       27.2339         0.000       
     131       27.1800         0.000       
     130       27.0090         0.000       
     129       26.7749         0.000       
     128       25.7862         0.000       
     127       24.9125         0.000       
     126       24.5380         0.000       
     125       24.0166         0.000       
     124       23.8978         0.000       
     123       22.7927         0.000       
     122       21.9178         0.000       
     121       21.4622         0.000       
     120       20.9169         0.000       
     119       20.3809         0.000       
     118       19.5594         0.000       
     117       19.0679         0.000       
     116       18.6299         0.000       
     115       18.0487         0.000       
     114       17.4744         0.000       
     113       16.9789         0.000       
     112       16.3961         0.000       
     111       15.3307         0.000       
     110       15.1259         0.000       
     109       14.7491         0.000       
     108       14.3385         0.000       
     107       14.0318         0.000       
     106       13.6095         0.000       
     105       13.0070         0.000       
     104       12.8391         0.000       
     103       12.5535         0.000       
     102       12.3581         0.000       
     101       12.0434         0.000       
     100       11.8899         0.000       
      99       11.4684         0.000       
      98       11.3120         0.000       
      97       10.9584         0.000       
      96       10.9430         0.000       
      95       10.7417         0.000       
      94       10.5406         0.000       
      93       10.3161         0.000       
      92       10.1772         0.000       
      91       10.0496         0.000       
      90        9.8809         0.000       
      89        9.5326         0.000       
      88        9.2520         0.000       
      87        9.1262         0.000       
      86        8.6918         0.000       
      85        8.4637         0.000       
      84        8.3652         0.000       
      83        8.3094         0.000       
      82        8.2788         0.000       
      81        8.0679         0.000       
      80        7.8495         0.000       
      79        7.4394         0.000       
      78        7.4073         0.000       
      77        6.9795         0.000       
      76        6.7789         0.000       
      75        6.3330         0.000       
      74        5.9852         0.000       
      73        5.8346         0.000       
      72        5.4550         0.000       
      71        5.3902         0.000       
      70        5.2300         0.000       
      69        5.0622         0.000       
      68        4.8093         0.000       
      67        4.5687         0.000       
      66        4.3662         0.000       
      65        4.0266         0.000       
      64        3.9879         0.000       
      63        3.4262         0.000       
      62        3.1141         0.000       
      61        2.4772         0.000       
      60        2.0688         0.000       
      59        2.0493         0.000       
      58        1.7999         0.000       
      57        1.5056         0.000       
      56        1.3404         0.000       
      55        1.2043         0.000       
      54        0.7801         0.000       
      53        0.5324         0.000       
      52        0.0449         0.000       
      51        0.0090         0.000       
      50       -0.5651         0.000       
      49       -1.3401         0.000       
      48       -1.4987         0.000       
      47       -2.1478         0.000 < LUMO
      46       -6.4547         2.000 < HOMO
      45       -6.5105         2.000       
      44       -6.9644         2.000       
      43       -7.1963         2.000       
      42       -7.5462         2.000       
      41       -7.7585         2.000       
      40       -8.1629         2.000       
      39       -8.3010         2.000       
      38       -8.4949         2.000       
      37       -9.0930         2.000       
      36       -9.7995         2.000       
      35      -10.0260         2.000       
      34      -10.1900         2.000       
      33      -10.9133         2.000       
      32      -11.2081         2.000       
      31      -11.3462         2.000       
      30      -11.7629         2.000       
      29      -12.1458         2.000       
      28      -12.6674         2.000       
      27      -14.4966         2.000       
      26      -14.9031         2.000       
      25      -16.6801         2.000       
      24      -17.3942         2.000       
      23      -18.9818         2.000       
      22      -19.5394         2.000       
      21      -20.1963         2.000       
      20      -20.6502         2.000       
      19      -22.5319         2.000       
      18     -190.0726         2.000       
      17     -190.0823         2.000       
      16     -190.1256         2.000       
      15     -190.1344         2.000       
      14     -190.3765         2.000       
      13     -190.4255         2.000       
      12     -251.1250         2.000       
      11     -251.1763         2.000       
      10     -270.2971         2.000       
       9     -270.3331         2.000       
       8     -270.3929         2.000       
       7     -270.5387         2.000       
       6     -270.6405         2.000       
       5     -270.6979         2.000       
       4     -271.1196         2.000       
       3     -273.8037         2.000       
       2    -2750.3787         2.000       
       1    -2750.4304         2.000       

AMS application finished. Exiting.
NORMAL TERMINATION
     Total cpu time:      74.96
  Total system time:       0.33
 Total elapsed time:      75.74
NORMAL TERMINATION
