
 *******************************************************************************
 *                                                                             *
 *  --------------------------------                                           *
 *   Amsterdam Modeling Suite (AMS)              2026.103                      *
 *  --------------------------------                                           *
 *                                               r260501 2026-05-01 873454b5   *
 *                                                                             *
 *                                                                             *
 *                              =================                              *
 *                              |               |                              *
 *                              |     A M S     |                              *
 *                              |               |                              *
 *                              =================                              *
 *                                                                             *
 *                                                                             *
 *   Online information and documentation:  https://www.scm.com/support/       *
 *   E-mail:  support@scm.com   info@scm.com                                   *
 *                                                                             *
 *   Scientific publications using AMS results must be properly referenced     *
 *   See the User Manuals (or the web site) for recommended citations          *
 *   The terms and conditions of the End User License Agreement apply to       *
 *   the use of AMS, https://www.scm.com/license-terms/                        *
 *                                                                             *
 **********************  x86_64_linux_intel / intelmpi  ************************
 
 Licensed to: Jong-June Jeon / University of Seoul 2026-06-02 13:44:15
 SCM User ID: u30731
  
 AMS 2026.103  RunTime: Jun03-2026 11:24:50  ShM Nodes: 1  Procs: 1

 AMS jobname: c5_fragB_opt
 AMS jobid  : 374661322

 Start   directory: /gpfs/home1/yeseo1ee/projects/eda-asm-prediction/ADF_800/adf_outputs/batch_000/dipolar_001120/
 Results directory: /gpfs/home1/yeseo1ee/projects/eda-asm-prediction/ADF_800/adf_outputs/batch_000/dipolar_001120/c5_fragB_opt.results/
 Scratch directory: /tmp/amstmp_c5_fragB_opt_kid0.374661322/

 RNG seed: -2055677639 -1836243307 -1703052684 1630043834 -1395733118 -707694112 -1826231107 1698280502



                      ************************************************************************
                      *  ADF 2026.103  RunTime: Jun03-2026 11:24:50  ShM Nodes: 1  Procs: 1  *
                      ************************************************************************
  

       ***************************
       *  GEOMETRY OPTIMIZATION  *
       ***************************

Optimization Method                    Quasi Newton
Optimization Coordinates               Delocalized Coordinates
Optimize lattice                       F
 
 ------------------------------------------------------
 Convergence criteria (Hartree,Angstrom)
 ------------------------------------------------------
 Maximum gradient               0.000100000000
 Maximum rms gradient           0.000066666667
 Maximum step allowed           0.010000000000
 Maximum rms step allowed       0.006666666667
 Maximum energy change allowe   0.000200000000
 Maximum stress energy allowe   0.000500000000
 
Initial model Hessian                  Automatic Hessian
 
------------------------------------
Quasi-Newton Optimizer Parameters
------------------------------------
Hessian Update Method                  BFGS
Maximum number of steps                  200
First GDIIS cycle                          0
Maximum GDIIS vectors                      0
Trust radius (bohr)                        0.200000
Trust radius varies                        T
Constraints converged at all steps         T
Use projector                              T
 
 Rigid motions settings for: old optimizer
 Atomic rotations (x,y,z):     T T T
 Atomic translations (x,y,z):  T T T
 Tolerance:                  1.000000000000000E-006

--------
Geometry
--------
Formula: C8H10Cl2
Atoms
  Index Symbol   x (angstrom)   y (angstrom)   z (angstrom)
      1      C     0.02538000     0.62490000     0.39844000
      2      C    -0.99458000     0.05743000    -0.05121000
      3      C    -2.43032000    -0.19156000    -0.18121000
      4      C    -3.20079000     0.21118000     1.08833000
      5      C    -3.12184000     1.68383000     1.51235000
      6      C    -1.87881000     2.16003000     2.29460000
      7      C    -0.70690000     2.75610000     1.49451000
      8      C     0.44261000     1.80626000     1.15017000
      9     Cl     1.28268000     1.26816000     2.68884000
     10     Cl     1.66125000     2.76006000     0.16097000
     11      H    -2.80337000     0.36841000    -1.05688000
     12      H    -2.62164000    -1.25517000    -0.39342000
     13      H    -2.86511000    -0.42880000     1.92189000
     14      H    -4.25745000    -0.04323000     0.90529000
     15      H    -3.99045000     1.86206000     2.16631000
     16      H    -3.27546000     2.33289000     0.63178000
     17      H    -2.21396000     2.96191000     2.96964000
     18      H    -1.51396000     1.35577000     2.95442000
     19      H    -1.07044000     3.16116000     0.53720000
     20      H    -0.25943000     3.59405000     2.04794000

Total System Charge              0.00000


----------------
ADF Engine Input
----------------
 
   Basis
     Type TZ2P
     Core None
   End
   XC
     GGA BLYP
     Dispersion GRIMME3 BJDAMP
   End
   Symmetry NOSYM
   NumericalQuality Normal
   Unrestricted No
   SCF
     Iterations 200
     Converge 1.0e-6
   End
   Save TAPE21
 

 Title: *** (NO TITLE) ***

 Using automatic Hessian for delocalized coordinates.
 *** GO1_GOStep1 ***

 Energy gradients wrt nuclear displacements
 ==========================================

     Atom      Cartesian (a.u./angstrom)
                 X         Y         Z
 ----------------------------------------
     1 C     0.111633  0.026591  0.029978
     2 C    -0.080364 -0.064434 -0.054134
     3 C    -0.010675  0.024829  0.027170
     4 C     0.005248  0.009306 -0.011819
     5 C     0.009390 -0.009044  0.002556
     6 C    -0.001326  0.000339 -0.014826
     7 C     0.003319 -0.010724  0.005283
     8 C    -0.018252  0.025529  0.017527
     9 Cl   -0.007022  0.003037 -0.015204
    10 Cl   -0.012507 -0.008982  0.007950
    11 H     0.000287  0.001513 -0.002708
    12 H     0.003186 -0.001323  0.001143
    13 H     0.001484 -0.002888  0.003400
    14 H    -0.003076 -0.000316  0.000284
    15 H    -0.001969  0.000522  0.002952
    16 H    -0.000022  0.002167 -0.002707
    17 H    -0.000397  0.002941  0.001488
    18 H     0.001559 -0.003878  0.003348
    19 H    -0.001313  0.001080 -0.003721
    20 H     0.000817  0.003735  0.002040
 ----------------------------------------
 
----------------------------------------------------------------------
Geometry Convergence after Step   1       (Hartree/Angstrom,Angstrom)
----------------------------------------------------------------------
current energy                               -3.90373664 Hartree
energy change                      -3.90373664     0.00020000    F
constrained gradient max            0.11161954     0.00010000    F
constrained gradient rms            0.02306493     0.00006667    F
gradient max                        0.11161954
gradient rms                        0.02306493
cart. step max                      0.07405126     0.01000000    F
cart. step rms                      0.01987561     0.00666667    F
 

--------
Geometry
--------
Formula: C8H10Cl2
Atoms
  Index Symbol   x (angstrom)   y (angstrom)   z (angstrom)
      1      C    -0.04867126     0.67105721     0.41277187
      2      C    -1.02743123     0.11922768    -0.01383676
      3      C    -2.44015862    -0.20700043    -0.19030121
      4      C    -3.20868013     0.19502934     1.08753447
      5      C    -3.12361803     1.67714361     1.50466960
      6      C    -1.87435757     2.16373571     2.28741773
      7      C    -0.69001590     2.77035468     1.49894250
      8      C     0.46171190     1.81507928     1.14967814
      9     Cl     1.29225996     1.25185201     2.69588179
     10     Cl     1.70664289     2.74156109     0.14916192
     11      H    -2.82420255     0.34568865    -1.06390682
     12      H    -2.60109303    -1.27473633    -0.40552402
     13      H    -2.86355413    -0.43620615     1.92049977
     14      H    -4.26297137    -0.06722527     0.91188996
     15      H    -3.99032726     1.85630496     2.15777323
     16      H    -3.28271632     2.32062122     0.62335145
     17      H    -2.21511625     2.95880938     2.96486158
     18      H    -1.51009820     1.36063762     2.94409838
     19      H    -1.04727099     3.18304641     0.54509827
     20      H    -0.24292193     3.60045935     2.05989815

Total System Charge              0.00000

 *** GO1_GOStep2 ***

 Energy gradients wrt nuclear displacements
 ==========================================

     Atom      Cartesian (a.u./angstrom)
                 X         Y         Z
 ----------------------------------------
     1 C    -0.023508 -0.037534 -0.019945
     2 C     0.038060  0.018273  0.010729
     3 C    -0.010805  0.012252  0.014257
     4 C     0.007050  0.006513 -0.005633
     5 C     0.005214 -0.005600  0.003216
     6 C    -0.001309  0.001325 -0.009936
     7 C    -0.000508 -0.011831  0.001931
     8 C    -0.005685  0.019494  0.011770
     9 Cl   -0.004402  0.001706 -0.006123
    10 Cl   -0.003789 -0.002440  0.001622
    11 H     0.000879  0.000765 -0.002062
    12 H    -0.000399 -0.001779 -0.001138
    13 H     0.000386 -0.000961  0.001924
    14 H    -0.000425 -0.001918 -0.001420
    15 H    -0.001370 -0.000317  0.001009
    16 H    -0.000600  0.001268 -0.000822
    17 H     0.000100  0.001025  0.001186
    18 H     0.000287 -0.001506  0.001473
    19 H    -0.000936  0.000353 -0.001410
    20 H     0.001761  0.000911 -0.000627
 ----------------------------------------

 dE(predicted):    -0.60419E-02, dE(actual):    -0.61841E-02, Trust radius:    0.400000, all in a.u.
 
----------------------------------------------------------------------
Geometry Convergence after Step   2       (Hartree/Angstrom,Angstrom)
----------------------------------------------------------------------
current energy                               -3.90992077 Hartree
energy change                      -0.00618413     0.00020000    F
constrained gradient max            0.03804489     0.00010000    F
constrained gradient rms            0.00986599     0.00006667    F
gradient max                        0.03804489
gradient rms                        0.00986599
cart. step max                      0.09119113     0.01000000    F
cart. step rms                      0.03247942     0.00666667    F
 

--------
Geometry
--------
Formula: C8H10Cl2
Atoms
  Index Symbol   x (angstrom)   y (angstrom)   z (angstrom)
      1      C    -0.09817774     0.73857740     0.40414509
      2      C    -1.07347339     0.15117473    -0.00702225
      3      C    -2.46001905    -0.25756540    -0.19211874
      4      C    -3.22870474     0.18450954     1.08066460
      5      C    -3.10895729     1.67865516     1.47362688
      6      C    -1.86748000     2.16007299     2.28675010
      7      C    -0.66729823     2.79731810     1.53475026
      8      C     0.47720832     1.83964622     1.14294089
      9     Cl     1.33929941     1.22371662     2.65997743
     10     Cl     1.72178628     2.77222860     0.13786558
     11      H    -2.86682104     0.25449752    -1.07831081
     12      H    -2.58213518    -1.33622290    -0.36833862
     13      H    -2.89184966    -0.43371329     1.92418009
     14      H    -4.28798246    -0.05972454     0.91604570
     15      H    -3.98336902     1.88405028     2.10599182
     16      H    -3.23950067     2.31177636     0.58188685
     17      H    -2.22497454     2.93858458     2.97265043
     18      H    -1.51180702     1.34804109     2.93379001
     19      H    -1.01608502     3.24934375     0.59753055
     20      H    -0.22224894     3.60047317     2.13295415

Total System Charge              0.00000

 *** GO1_GOStep3 ***

 Energy gradients wrt nuclear displacements
 ==========================================

     Atom      Cartesian (a.u./angstrom)
                 X         Y         Z
 ----------------------------------------
     1 C    -0.002549 -0.011167 -0.003051
     2 C     0.002254  0.008076  0.004228
     3 C    -0.007543 -0.000768  0.004881
     4 C     0.005791  0.003964 -0.004418
     5 C     0.003992 -0.003153  0.002366
     6 C    -0.001870  0.001043 -0.005345
     7 C    -0.000594 -0.008424 -0.000803
     8 C     0.003052  0.011233  0.007433
     9 Cl   -0.000923  0.000891 -0.001829
    10 Cl    0.000112  0.000509 -0.000231
    11 H     0.001026  0.000702 -0.000455
    12 H    -0.001956 -0.001297 -0.002278
    13 H    -0.000179  0.000330  0.000407
    14 H     0.000518 -0.001979 -0.000999
    15 H     0.000036 -0.000864  0.000432
    16 H    -0.001214  0.001049  0.000471
    17 H     0.000654 -0.000241  0.000525
    18 H    -0.001275  0.000193  0.000579
    19 H    -0.000261 -0.000521 -0.000112
    20 H     0.000930  0.000425 -0.001802
 ----------------------------------------

 dE(predicted):    -0.16485E-02, dE(actual):    -0.19033E-02, Trust radius:    0.400000, all in a.u.
 
----------------------------------------------------------------------
Geometry Convergence after Step   3       (Hartree/Angstrom,Angstrom)
----------------------------------------------------------------------
current energy                               -3.91182404 Hartree
energy change                      -0.00190327     0.00020000    F
constrained gradient max            0.01119904     0.00010000    F
constrained gradient rms            0.00351294     0.00006667    F
gradient max                        0.01119904
gradient rms                        0.00351294
cart. step max                      0.09946792     0.01000000    F
cart. step rms                      0.03603829     0.00666667    F
 

--------
Geometry
--------
Formula: C8H10Cl2
Atoms
  Index Symbol   x (angstrom)   y (angstrom)   z (angstrom)
      1      C    -0.13635927     0.78976469     0.37034473
      2      C    -1.09564943     0.16376237    -0.02251812
      3      C    -2.46347743    -0.30075269    -0.18321553
      4      C    -3.24118947     0.18250420     1.07922467
      5      C    -3.09219300     1.68802048     1.44059380
      6      C    -1.86555538     2.15735144     2.29469527
      7      C    -0.65478369     2.82315653     1.57737744
      8      C     0.46709547     1.85677592     1.12128671
      9     Cl     1.36160420     1.17761565     2.59767655
     10     Cl     1.70657818     2.80590690     0.12165585
     11      H    -2.89714805     0.15502960    -1.08623550
     12      H    -2.54713271    -1.38890886    -0.30326396
     13      H    -2.91856079    -0.42146529     1.93743541
     14      H    -4.30536818    -0.04017085     0.91927571
     15      H    -3.98160551     1.92942468     2.03721654
     16      H    -3.17384861     2.30228607     0.53108856
     17      H    -2.24081545     2.91822128     2.99005557
     18      H    -1.51524932     1.33256121     2.92722730
     19      H    -0.99911470     3.33097645     0.66820699
     20      H    -0.19981686     3.58338022     2.22183201

Total System Charge              0.00000

 *** GO1_GOStep4 ***

 Energy gradients wrt nuclear displacements
 ==========================================

     Atom      Cartesian (a.u./angstrom)
                 X         Y         Z
 ----------------------------------------
     1 C     0.000501 -0.003639  0.000788
     2 C    -0.004279  0.005096  0.002459
     3 C    -0.000587 -0.005288  0.000578
     4 C     0.001665  0.000453 -0.003077
     5 C     0.002471 -0.000806 -0.000334
     6 C    -0.000746  0.000095 -0.000322
     7 C     0.000765 -0.000375 -0.000281
     8 C     0.002203  0.001680  0.001753
     9 Cl    0.000172  0.000589 -0.001551
    10 Cl    0.000845  0.000839  0.000123
    11 H     0.000813  0.000643  0.000448
    12 H    -0.001221  0.000206 -0.001588
    13 H    -0.000406  0.000591 -0.000227
    14 H    -0.000045 -0.000599  0.000527
    15 H     0.000803 -0.001185  0.000753
    16 H    -0.001466  0.001019  0.000687
    17 H     0.000620 -0.000435 -0.000086
    18 H    -0.001567  0.000652  0.000342
    19 H     0.000306 -0.000920  0.000094
    20 H    -0.000845  0.001386 -0.001085
 ----------------------------------------

 dE(predicted):    -0.66237E-03, dE(actual):    -0.82885E-03, Trust radius:    0.800000, all in a.u.
 
----------------------------------------------------------------------
Geometry Convergence after Step   4       (Hartree/Angstrom,Angstrom)
----------------------------------------------------------------------
current energy                               -3.91265289 Hartree
energy change                      -0.00082885     0.00020000    F
constrained gradient max            0.00524827     0.00010000    F
constrained gradient rms            0.00158021     0.00006667    F
gradient max                        0.00524827
gradient rms                        0.00158021
cart. step max                      0.08254337     0.01000000    F
cart. step rms                      0.03292090     0.00666667    F
 

--------
Geometry
--------
Formula: C8H10Cl2
Atoms
  Index Symbol   x (angstrom)   y (angstrom)   z (angstrom)
      1      C    -0.16228807     0.82884541     0.33461039
      2      C    -1.10553871     0.16952593    -0.04447225
      3      C    -2.46344699    -0.32751629    -0.17012829
      4      C    -3.24761850     0.18557771     1.08424453
      5      C    -3.07981599     1.69946819     1.41209230
      6      C    -1.86775923     2.15159392     2.30230095
      7      C    -0.64944931     2.83566147     1.61323355
      8      C     0.45350754     1.87128029     1.09894457
      9     Cl     1.36932212     1.14274121     2.54336428
     10     Cl     1.68028309     2.84135943     0.10220654
     11      H    -2.92330805     0.07248623    -1.08630480
     12      H    -2.51547219    -1.42147806    -0.23561743
     13      H    -2.93577610    -0.40521201     1.95553096
     14      H    -4.31346767    -0.02454084     0.92173664
     15      H    -3.98580524     1.98203017     1.96401016
     16      H    -3.10341654     2.28679282     0.48245483
     17      H    -2.25548111     2.89691798     3.00776961
     18      H    -1.51964225     1.31326485     2.91823877
     19      H    -0.99079025     3.39992330     0.73666323
     20      H    -0.17662654     3.54671829     2.29908145

Total System Charge              0.00000

 *** GO1_GOStep5 ***

 Energy gradients wrt nuclear displacements
 ==========================================

     Atom      Cartesian (a.u./angstrom)
                 X         Y         Z
 ----------------------------------------
     1 C     0.004160  0.002694  0.003351
     2 C    -0.006808 -0.000431 -0.000547
     3 C     0.004101 -0.003097 -0.001252
     4 C    -0.000979 -0.002329 -0.000715
     5 C     0.000526  0.001139 -0.002249
     6 C     0.000002 -0.000671  0.002644
     7 C     0.001167  0.002834  0.000289
     8 C     0.000951 -0.003902 -0.001851
     9 Cl   -0.000326  0.000284 -0.000961
    10 Cl    0.000560  0.000891 -0.000400
    11 H     0.000056  0.000425  0.000283
    12 H    -0.000063  0.001091 -0.000207
    13 H    -0.000394  0.000260  0.000134
    14 H    -0.000279  0.000652  0.000905
    15 H     0.000234 -0.001027  0.000912
    16 H    -0.001046  0.000641  0.000322
    17 H    -0.000088 -0.000117 -0.000473
    18 H    -0.000831  0.000463  0.000272
    19 H     0.000145 -0.000619 -0.000149
    20 H    -0.001087  0.000820 -0.000309
 ----------------------------------------

 dE(predicted):    -0.36025E-03, dE(actual):    -0.46398E-03, Trust radius:    0.800000, all in a.u.
 
----------------------------------------------------------------------
Geometry Convergence after Step   5       (Hartree/Angstrom,Angstrom)
----------------------------------------------------------------------
current energy                               -3.91311687 Hartree
energy change                      -0.00046398     0.00020000    F
constrained gradient max            0.00684840     0.00010000    F
constrained gradient rms            0.00169800     0.00006667    F
gradient max                        0.00684840
gradient rms                        0.00169800
cart. step max                      0.04196458     0.01000000    F
cart. step rms                      0.01678381     0.00666667    F
 

--------
Geometry
--------
Formula: C8H10Cl2
Atoms
  Index Symbol   x (angstrom)   y (angstrom)   z (angstrom)
      1      C    -0.17470973     0.84462292     0.31685375
      2      C    -1.10868435     0.16989447    -0.05601714
      3      C    -2.46529411    -0.33807566    -0.16206928
      4      C    -3.24883541     0.18975835     1.08834059
      5      C    -3.07390863     1.70620112     1.39839894
      6      C    -1.86973871     2.14732435     2.30468694
      7      C    -0.64987282     2.83930215     1.62966881
      8      C     0.44373413     1.87939385     1.08891832
      9     Cl     1.37217288     1.13299453     2.51884138
     10     Cl     1.66376836     2.85965088     0.09462916
     11      H    -2.93676700     0.03431141    -1.08381368
     12      H    -2.50518934    -1.43430484    -0.20133377
     13      H    -2.93909456    -0.39430104     1.96496738
     14      H    -4.31407852    -0.02017140     0.92302840
     15      H    -3.98818477     2.01433041     1.92204558
     16      H    -3.06230090     2.27566571     0.45789932
     17      H    -2.26035854     2.88278538     3.01920546
     18      H    -1.52065045     1.30007873     2.90824203
     19      H    -0.98953543     3.43354015     0.77224006
     20      H    -0.16506210     3.52243854     2.33522776

Total System Charge              0.00000

 *** GO1_GOStep6 ***

 Energy gradients wrt nuclear displacements
 ==========================================

     Atom      Cartesian (a.u./angstrom)
                 X         Y         Z
 ----------------------------------------
     1 C     0.002066  0.001794  0.001741
     2 C    -0.003160 -0.000779 -0.000764
     3 C     0.003487 -0.000913 -0.001439
     4 C    -0.000974 -0.002049  0.000377
     5 C    -0.000544  0.001357 -0.001564
     6 C     0.000353 -0.000717  0.002200
     7 C     0.000532  0.002586  0.000281
     8 C    -0.000171 -0.003718 -0.001332
     9 Cl   -0.000153  0.000465 -0.000579
    10 Cl    0.000349  0.000597 -0.000232
    11 H    -0.000311  0.000006  0.000165
    12 H     0.000274  0.000623  0.000291
    13 H    -0.000108  0.000060  0.000253
    14 H    -0.000018  0.000632  0.000238
    15 H    -0.000114 -0.000503  0.000655
    16 H    -0.000434  0.000196  0.000156
    17 H    -0.000210  0.000311 -0.000488
    18 H    -0.000244  0.000183  0.000101
    19 H    -0.000099 -0.000225 -0.000105
    20 H    -0.000520  0.000095  0.000046
 ----------------------------------------

 dE(predicted):    -0.10181E-03, dE(actual):    -0.15065E-03, Trust radius:    0.800000, all in a.u.
 
----------------------------------------------------------------------
Geometry Convergence after Step   6       (Hartree/Angstrom,Angstrom)
----------------------------------------------------------------------
current energy                               -3.91326752 Hartree
energy change                      -0.00015065     0.00020000    T
constrained gradient max            0.00381134     0.00010000    F
constrained gradient rms            0.00114517     0.00006667    F
gradient max                        0.00381134
gradient rms                        0.00114517
cart. step max                      0.01868856     0.01000000    F
cart. step rms                      0.00650000     0.00666667    T
 

--------
Geometry
--------
Formula: C8H10Cl2
Atoms
  Index Symbol   x (angstrom)   y (angstrom)   z (angstrom)
      1      C    -0.17868190     0.84976354     0.31220303
      2      C    -1.10963952     0.16974892    -0.05779232
      3      C    -2.46762636    -0.34050770    -0.15738895
      4      C    -3.24959998     0.19217318     1.09095357
      5      C    -3.07118538     1.70847814     1.39287632
      6      C    -1.87004387     2.14386900     2.30385132
      7      C    -0.65116203     2.83994310     1.63450379
      8      C     0.44041679     1.88447187     1.08608966
      9     Cl     1.37146149     1.13277829     2.51282469
     10     Cl     1.65740986     2.86690456     0.09140003
     11      H    -2.94078644     0.02407852    -1.08130012
     12      H    -2.50537227    -1.43759165    -0.18971421
     13      H    -2.93883839    -0.38935847     1.96885622
     14      H    -4.31431114    -0.02044460     0.92538963
     15      H    -3.98834962     2.02908742     1.90335702
     16      H    -3.04394364     2.26940712     0.44766679
     17      H    -2.26028335     2.87251339     3.02565681
     18      H    -1.51922813     1.29155726     2.89956812
     19      H    -0.99030771     3.44494571     0.78429697
     20      H    -0.16251841     3.51362240     2.34666163

Total System Charge              0.00000

 *** GO1_GOStep7 ***

 Energy gradients wrt nuclear displacements
 ==========================================

     Atom      Cartesian (a.u./angstrom)
                 X         Y         Z
 ----------------------------------------
     1 C     0.000627  0.000519  0.000692
     2 C    -0.000785 -0.000186 -0.000677
     3 C     0.001612  0.000120 -0.000787
     4 C    -0.000564 -0.000940  0.000701
     5 C    -0.000455  0.000748 -0.000597
     6 C     0.000330 -0.000405  0.000745
     7 C    -0.000109  0.000963  0.000170
     8 C    -0.000145 -0.001532 -0.000094
     9 Cl   -0.000335  0.000383 -0.000288
    10 Cl    0.000341  0.000516 -0.000438
    11 H    -0.000236 -0.000209  0.000093
    12 H     0.000193  0.000040  0.000337
    13 H     0.000079 -0.000017  0.000101
    14 H     0.000094  0.000224 -0.000173
    15 H    -0.000128 -0.000310  0.000311
    16 H    -0.000068 -0.000016  0.000151
    17 H    -0.000172  0.000376 -0.000334
    18 H    -0.000044 -0.000010  0.000045
    19 H    -0.000177 -0.000003 -0.000067
    20 H    -0.000057 -0.000263  0.000109
 ----------------------------------------

 dE(predicted):    -0.26899E-04, dE(actual):    -0.42027E-04, Trust radius:    0.800000, all in a.u.
 
----------------------------------------------------------------------
Geometry Convergence after Step   7       (Hartree/Angstrom,Angstrom)
----------------------------------------------------------------------
current energy                               -3.91330954 Hartree
energy change                      -0.00004203     0.00020000    T
constrained gradient max            0.00162149     0.00010000    F
constrained gradient rms            0.00048703     0.00006667    F
gradient max                        0.00162149
gradient rms                        0.00048703
cart. step max                      0.00688867     0.01000000    T
cart. step rms                      0.00231968     0.00666667    T
 

--------
Geometry
--------
Formula: C8H10Cl2
Atoms
  Index Symbol   x (angstrom)   y (angstrom)   z (angstrom)
      1      C    -0.17956884     0.85000726     0.31303489
      2      C    -1.10999763     0.16890586    -0.05582129
      3      C    -2.46934352    -0.34057407    -0.15541716
      4      C    -3.25002501     0.19315583     1.09201151
      5      C    -3.06991894     1.70885622     1.39105925
      6      C    -1.86986510     2.14199694     2.30306959
      7      C    -0.65218398     2.84002342     1.63514694
      8      C     0.43950736     1.88632877     1.08659026
      9     Cl     1.37316126     1.13496226     2.51247376
     10     Cl     1.65479563     2.86852394     0.09103207
     11      H    -2.94047553     0.02503463    -1.07995956
     12      H    -2.50839236    -1.43779194    -0.18898225
     13      H    -2.93822160    -0.38770052     1.96997095
     14      H    -4.31464047    -0.02126549     0.92766835
     15      H    -3.98784875     2.03475143     1.89646835
     16      H    -3.03735281     2.26655395     0.44401117
     17      H    -2.25937207     2.86633943     3.02955131
     18      H    -1.51748926     1.28735778     2.89461125
     19      H    -0.99151483     3.44617653     0.78582331
     20      H    -0.16384356     3.51379775     2.34761727

Total System Charge              0.00000

 *** GO1_GOStep8 ***

 Energy gradients wrt nuclear displacements
 ==========================================

     Atom      Cartesian (a.u./angstrom)
                 X         Y         Z
 ----------------------------------------
     1 C    -0.000214 -0.000402 -0.000022
     2 C     0.000335  0.000477 -0.000425
     3 C     0.000297  0.000198 -0.000113
     4 C    -0.000109 -0.000025  0.000470
     5 C    -0.000096  0.000051  0.000039
     6 C     0.000132 -0.000111 -0.000198
     7 C    -0.000261  0.000056 -0.000079
     8 C    -0.000228 -0.000178  0.000706
     9 Cl   -0.000114  0.000292 -0.000213
    10 Cl    0.000194  0.000330 -0.000285
    11 H    -0.000041 -0.000225  0.000034
    12 H     0.000111 -0.000233  0.000185
    13 H     0.000114 -0.000037 -0.000023
    14 H     0.000118 -0.000083 -0.000229
    15 H    -0.000033 -0.000198  0.000096
    16 H    -0.000002 -0.000055  0.000074
    17 H    -0.000089  0.000231 -0.000155
    18 H    -0.000002 -0.000021  0.000042
    19 H    -0.000162  0.000090  0.000020
    20 H     0.000051 -0.000157  0.000075
 ----------------------------------------

 dE(predicted):    -0.78311E-05, dE(actual):    -0.10778E-04, Trust radius:    0.800000, all in a.u.
 
----------------------------------------------------------------------
Geometry Convergence after Step   8       (Hartree/Angstrom,Angstrom)
----------------------------------------------------------------------
current energy                               -3.91332032 Hartree
energy change                      -0.00001078     0.00020000    T
constrained gradient max            0.00071556     0.00010000    F
constrained gradient rms            0.00020425     0.00006667    F
gradient max                        0.00071556
gradient rms                        0.00020425
cart. step max                      0.00430715     0.01000000    T
cart. step rms                      0.00150985     0.00666667    T
 

--------
Geometry
--------
Formula: C8H10Cl2
Atoms
  Index Symbol   x (angstrom)   y (angstrom)   z (angstrom)
      1      C    -0.17962493     0.84949775     0.31490665
      2      C    -1.11016926     0.16802859    -0.05320820
      3      C    -2.47024913    -0.34027660    -0.15454071
      4      C    -3.25050731     0.19337219     1.09243531
      5      C    -3.06922840     1.70878885     1.39037017
      6      C    -1.86940053     2.14064568     2.30280576
      7      C    -0.65272354     2.84013044     1.63478711
      8      C     0.43960163     1.88729193     1.08697554
      9     Cl     1.37371654     1.13717711     2.51368162
     10     Cl     1.65401276     2.86870845     0.09067339
     11      H    -2.93918278     0.02802460    -1.07917022
     12      H    -2.51074874    -1.43731034    -0.19067892
     13      H    -2.93831402    -0.38730332     1.97040750
     14      H    -4.31529700    -0.02146571     0.92944592
     15      H    -3.98734927     2.03723251     1.89366553
     16      H    -3.03466201     2.26521865     0.44256228
     17      H    -2.25842559     2.86203228     3.03239852
     18      H    -1.51574875     1.28465363     2.89160702
     19      H    -0.99262474     3.44488364     0.78470557
     20      H    -0.16566494     3.51610964     2.34613018

Total System Charge              0.00000

 *** GO1_GOStep9 ***

 Energy gradients wrt nuclear displacements
 ==========================================

     Atom      Cartesian (a.u./angstrom)
                 X         Y         Z
 ----------------------------------------
     1 C    -0.000192 -0.000448  0.000022
     2 C     0.000290  0.000520 -0.000326
     3 C    -0.000234 -0.000004  0.000226
     4 C     0.000158  0.000334  0.000141
     5 C     0.000148 -0.000311  0.000219
     6 C    -0.000030  0.000026 -0.000454
     7 C    -0.000165 -0.000392 -0.000118
     8 C    -0.000153  0.000370  0.000631
     9 Cl   -0.000120  0.000232 -0.000162
    10 Cl    0.000133  0.000280 -0.000218
    11 H     0.000080 -0.000165 -0.000003
    12 H     0.000097 -0.000210  0.000060
    13 H     0.000092 -0.000059 -0.000047
    14 H     0.000083 -0.000192 -0.000092
    15 H     0.000008 -0.000122 -0.000013
    16 H    -0.000042 -0.000036  0.000009
    17 H    -0.000059  0.000060 -0.000029
    18 H    -0.000000  0.000010  0.000068
    19 H    -0.000081  0.000079  0.000052
    20 H    -0.000012  0.000027  0.000035
 ----------------------------------------

 dE(predicted):    -0.27687E-05, dE(actual):    -0.15932E-05, Trust radius:    0.800000, all in a.u.
 
----------------------------------------------------------------------
Geometry Convergence after Step   9       (Hartree/Angstrom,Angstrom)
----------------------------------------------------------------------
current energy                               -3.91332191 Hartree
energy change                      -0.00000159     0.00020000    T
constrained gradient max            0.00064222     0.00010000    F
constrained gradient rms            0.00019826     0.00006667    F
gradient max                        0.00064222
gradient rms                        0.00019826
cart. step max                      0.00229966     0.01000000    T
cart. step rms                      0.00095622     0.00666667    T
 

--------
Geometry
--------
Formula: C8H10Cl2
Atoms
  Index Symbol   x (angstrom)   y (angstrom)   z (angstrom)
      1      C    -0.17943774     0.84893448     0.31627874
      2      C    -1.10999123     0.16713036    -0.05129539
      3      C    -2.47039832    -0.34005751    -0.15419766
      4      C    -3.25097628     0.19330997     1.09251125
      5      C    -3.06906051     1.70878474     1.39019713
      6      C    -1.86912389     2.13996181     2.30300065
      7      C    -0.65303093     2.84033408     1.63446938
      8      C     0.43974485     1.88749338     1.08725380
      9     Cl     1.37484535     1.13861356     2.51437412
     10     Cl     1.65331996     2.86848557     0.09035553
     11      H    -2.93792103     0.03032299    -1.07874973
     12      H    -2.51195405    -1.43687102    -0.19214393
     13      H    -2.93903172    -0.38733531     1.97063488
     14      H    -4.31591471    -0.02120684     0.93000266
     15      H    -3.98727094     2.03834392     1.89262050
     16      H    -3.03354485     2.26469500     0.44209758
     17      H    -2.25788285     2.85973262     3.03426344
     18      H    -1.51461932     1.28317929     2.89007352
     19      H    -0.99355877     3.44354169     0.78351674
     20      H    -0.16678300     3.51804719     2.34469679

Total System Charge              0.00000

 *** GO1_GOStep10 ***

 Energy gradients wrt nuclear displacements
 ==========================================

     Atom      Cartesian (a.u./angstrom)
                 X         Y         Z
 ----------------------------------------
     1 C    -0.000079 -0.000296  0.000086
     2 C     0.000163  0.000426 -0.000246
     3 C    -0.000235 -0.000151  0.000287
     4 C     0.000202  0.000278 -0.000083
     5 C     0.000171 -0.000354  0.000179
     6 C    -0.000107  0.000068 -0.000338
     7 C    -0.000019 -0.000316 -0.000113
     8 C    -0.000161  0.000306  0.000376
     9 Cl   -0.000020  0.000185 -0.000119
    10 Cl    0.000016  0.000200 -0.000098
    11 H     0.000107 -0.000102 -0.000011
    12 H     0.000122 -0.000092  0.000007
    13 H     0.000071 -0.000070 -0.000014
    14 H     0.000045 -0.000184  0.000038
    15 H    -0.000007 -0.000072 -0.000040
    16 H    -0.000065 -0.000035 -0.000019
    17 H    -0.000048 -0.000026  0.000025
    18 H     0.000006  0.000034  0.000054
    19 H    -0.000074  0.000070  0.000033
    20 H    -0.000086  0.000132 -0.000005
 ----------------------------------------
 
----------------------------------------------------------------------
Geometry Convergence after Step  10       (Hartree/Angstrom,Angstrom)
----------------------------------------------------------------------
current energy                               -3.91332142 Hartree
energy change                       0.00000050     0.00020000    T
constrained gradient max            0.00040921     0.00010000    F
constrained gradient rms            0.00015359     0.00006667    F
gradient max                        0.00040921
gradient rms                        0.00015359
cart. step max                      0.00144857     0.01000000    T
cart. step rms                      0.00059061     0.00666667    T
 

--------
Geometry
--------
Formula: C8H10Cl2
Atoms
  Index Symbol   x (angstrom)   y (angstrom)   z (angstrom)
      1      C    -0.17925057     0.84869033     0.31696824
      2      C    -1.10968869     0.16631784    -0.04998371
      3      C    -2.47023046    -0.34003341    -0.15395560
      4      C    -3.25141916     0.19324756     1.09249238
      5      C    -3.06908761     1.70891619     1.39015999
      6      C    -1.86887427     2.13946428     2.30327311
      7      C    -0.65321892     2.84058989     1.63427949
      8      C     0.43988233     1.88772246     1.08706676
      9     Cl     1.37524144     1.13965212     2.51477819
     10     Cl     1.65298448     2.86844904     0.08986643
     11      H    -2.93699080     0.03141192    -1.07848974
     12      H    -2.51250481    -1.43671238    -0.19266192
     13      H    -2.94004304    -0.38738924     1.97084659
     14      H    -4.31640748    -0.02071114     0.92968506
     15      H    -3.98731683     2.03896821     1.89226259
     16      H    -3.03292357     2.26459602     0.44196770
     17      H    -2.25743951     2.85828405     3.03552891
     18      H    -1.51379321     1.28205343     2.88902167
     19      H    -0.99428885     3.44292563     0.78290449
     20      H    -0.16722048     3.51899720     2.34394939

Total System Charge              0.00000

 *** GO1_GOStep11 ***

 Energy gradients wrt nuclear displacements
 ==========================================

     Atom      Cartesian (a.u./angstrom)
                 X         Y         Z
 ----------------------------------------
     1 C     0.000082 -0.000079  0.000210
     2 C    -0.000010  0.000219 -0.000199
     3 C    -0.000067 -0.000177  0.000198
     4 C     0.000146  0.000062 -0.000146
     5 C     0.000075 -0.000213  0.000072
     6 C    -0.000108  0.000042 -0.000104
     7 C     0.000046 -0.000117 -0.000041
     8 C    -0.000109  0.000148  0.000043
     9 Cl   -0.000019  0.000167 -0.000070
    10 Cl   -0.000030  0.000170 -0.000050
    11 H     0.000079 -0.000068 -0.000005
    12 H     0.000142 -0.000006  0.000004
    13 H     0.000070 -0.000073  0.000023
    14 H     0.000033 -0.000140  0.000094
    15 H    -0.000034 -0.000058 -0.000029
    16 H    -0.000057 -0.000043 -0.000021
    17 H    -0.000055 -0.000048  0.000027
    18 H     0.000013  0.000026  0.000029
    19 H    -0.000076  0.000046 -0.000007
    20 H    -0.000121  0.000140 -0.000025
 ----------------------------------------
 
----------------------------------------------------------------------
Geometry Convergence after Step  11       (Hartree/Angstrom,Angstrom)
----------------------------------------------------------------------
current energy                               -3.91332069 Hartree
energy change                       0.00000073     0.00020000    T
constrained gradient max            0.00021185     0.00010000    F
constrained gradient rms            0.00008338     0.00006667    F
gradient max                        0.00021185
gradient rms                        0.00008338
cart. step max                      0.00094175     0.01000000    T
cart. step rms                      0.00032065     0.00666667    T
 

--------
Geometry
--------
Formula: C8H10Cl2
Atoms
  Index Symbol   x (angstrom)   y (angstrom)   z (angstrom)
      1      C    -0.17913831     0.84867920     0.31707231
      2      C    -1.10939074     0.16575129    -0.04931001
      3      C    -2.46998892    -0.34013991    -0.15374938
      4      C    -3.25174085     0.19327805     1.09243674
      5      C    -3.06916614     1.70908150     1.39015138
      6      C    -1.86875643     2.13922463     2.30345479
      7      C    -0.65332383     2.84074647     1.63427837
      8      C     0.43993195     1.88786673     1.08686542
      9     Cl     1.37572314     1.14010339     2.51468516
     10     Cl     1.65259817     2.86865609     0.08949215
     11      H    -2.93641483     0.03152508    -1.07836625
     12      H    -2.51269805    -1.43679603    -0.19245767
     13      H    -2.94098480    -0.38736097     1.97099985
     14      H    -4.31668336    -0.02024657     0.92890164
     15      H    -3.98737766     2.03924890     1.89221283
     16      H    -3.03263697     2.26466780     0.44194980
     17      H    -2.25721511     2.85769405     3.03609033
     18      H    -1.51344096     1.28147236     2.88851489
     19      H    -0.99468853     3.44288846     0.78287675
     20      H    -0.16719776     3.51909948     2.34386090

Total System Charge              0.00000

 *** GO1_GOStep12 ***

 Energy gradients wrt nuclear displacements
 ==========================================

     Atom      Cartesian (a.u./angstrom)
                 X         Y         Z
 ----------------------------------------
     1 C     0.000091 -0.000001  0.000192
     2 C    -0.000009  0.000123 -0.000145
     3 C     0.000065 -0.000119  0.000094
     4 C     0.000068 -0.000105 -0.000091
     5 C    -0.000018 -0.000062 -0.000006
     6 C    -0.000076  0.000008  0.000052
     7 C     0.000023  0.000068 -0.000018
     8 C    -0.000071  0.000044 -0.000086
     9 Cl    0.000018  0.000147 -0.000025
    10 Cl   -0.000073  0.000144 -0.000019
    11 H     0.000050 -0.000062  0.000006
    12 H     0.000138  0.000003  0.000018
    13 H     0.000080 -0.000063  0.000034
    14 H     0.000044 -0.000113  0.000074
    15 H    -0.000042 -0.000070 -0.000010
    16 H    -0.000038 -0.000060 -0.000013
    17 H    -0.000056 -0.000034  0.000006
    18 H     0.000017  0.000020 -0.000000
    19 H    -0.000097  0.000033 -0.000030
    20 H    -0.000114  0.000100 -0.000034
 ----------------------------------------
 
----------------------------------------------------------------------
Geometry Convergence after Step  12       (Hartree/Angstrom,Angstrom)
----------------------------------------------------------------------
current energy                               -3.91332043 Hartree
energy change                       0.00000026     0.00020000    T
constrained gradient max            0.00019348     0.00010000    F
constrained gradient rms            0.00004871     0.00006667    T
gradient max                        0.00019348
gradient rms                        0.00004871
cart. step max                      0.00073245     0.01000000    T
cart. step rms                      0.00022412     0.00666667    T
 

--------
Geometry
--------
Formula: C8H10Cl2
Atoms
  Index Symbol   x (angstrom)   y (angstrom)   z (angstrom)
      1      C    -0.17908025     0.84879765     0.31691185
      2      C    -1.10919148     0.16539505    -0.04894177
      3      C    -2.46981910    -0.34029097    -0.15356240
      4      C    -3.25195565     0.19335564     1.09238710
      5      C    -3.06921419     1.70918345     1.39015719
      6      C    -1.86866702     2.13908782     2.30347660
      7      C    -0.65336077     2.84082298     1.63430931
      8      C     0.43996933     1.88804981     1.08663522
      9     Cl     1.37587186     1.14029188     2.51450045
     10     Cl     1.65246060     2.86893488     0.08927281
     11      H    -2.93604607     0.03127527    -1.07831168
     12      H    -2.51278943    -1.43697234    -0.19204537
     13      H    -2.94171007    -0.38730705     1.97109256
     14      H    -4.31683412    -0.01989605     0.92816918
     15      H    -3.98736181     2.03930991     1.89234374
     16      H    -3.03261596     2.26478081     0.44198792
     17      H    -2.25707001     2.85744068     3.03625274
     18      H    -1.51328173     1.28117753     2.88823819
     19      H    -0.99482911     3.44310744     0.78306062
     20      H    -0.16706500     3.51889559     2.34402574

Total System Charge              0.00000

 *** GO1_GOStep13 ***

 Energy gradients wrt nuclear displacements
 ==========================================

     Atom      Cartesian (a.u./angstrom)
                 X         Y         Z
 ----------------------------------------
     1 C     0.000068  0.000015  0.000148
     2 C     0.000013  0.000068 -0.000104
     3 C     0.000115 -0.000054  0.000027
     4 C     0.000021 -0.000171 -0.000010
     5 C    -0.000064  0.000021 -0.000034
     6 C    -0.000040 -0.000014  0.000099
     7 C    -0.000035  0.000137 -0.000002
     8 C    -0.000028  0.000049 -0.000122
     9 Cl    0.000020  0.000140  0.000000
    10 Cl   -0.000078  0.000138 -0.000016
    11 H     0.000037 -0.000068  0.000014
    12 H     0.000124 -0.000026  0.000028
    13 H     0.000088 -0.000050  0.000026
    14 H     0.000059 -0.000106  0.000035
    15 H    -0.000035 -0.000090  0.000002
    16 H    -0.000026 -0.000073 -0.000002
    17 H    -0.000058 -0.000018 -0.000012
    18 H     0.000016  0.000016 -0.000016
    19 H    -0.000102  0.000020 -0.000032
    20 H    -0.000095  0.000066 -0.000030
 ----------------------------------------
 
----------------------------------------------------------------------
Geometry Convergence after Step  13       (Hartree/Angstrom,Angstrom)
----------------------------------------------------------------------
current energy                               -3.91332052 Hartree
energy change                      -0.00000009     0.00020000    T
constrained gradient max            0.00014980     0.00010000    F
constrained gradient rms            0.00004160     0.00006667    T
gradient max                        0.00014980
gradient rms                        0.00004160
cart. step max                      0.00057365     0.01000000    T
cart. step rms                      0.00017896     0.00666667    T
 

--------
Geometry
--------
Formula: C8H10Cl2
Atoms
  Index Symbol   x (angstrom)   y (angstrom)   z (angstrom)
      1      C    -0.17905291     0.84896324     0.31666570
      2      C    -1.10906003     0.16515797    -0.04867982
      3      C    -2.46970383    -0.34044368    -0.15340028
      4      C    -3.25210046     0.19344472     1.09233633
      5      C    -3.06922818     1.70921888     1.39017037
      6      C    -1.86860664     2.13902460     2.30341941
      7      C    -0.65336178     2.84083559     1.63433887
      8      C     0.43999994     1.88818698     1.08648481
      9     Cl     1.37600914     1.14028241     2.51425994
     10     Cl     1.65237733     2.86921523     0.08920026
     11      H    -2.93573887     0.03099137    -1.07829110
     12      H    -2.51284452    -1.43715328    -0.19167871
     13      H    -2.94228373    -0.38726616     1.97114166
     14      H    -4.31693154    -0.01962009     0.92759836
     15      H    -3.98729940     2.03925972     1.89253460
     16      H    -3.03274443     2.26488557     0.44204709
     17      H    -2.25699174     2.85736263     3.03622596
     18      H    -1.51322841     1.28108174     2.88812889
     19      H    -0.99483213     3.44332838     0.78325108
     20      H    -0.16696781     3.51868420     2.34420658

Total System Charge              0.00000

 *** GO1_GOStep14 ***

 Energy gradients wrt nuclear displacements
 ==========================================

     Atom      Cartesian (a.u./angstrom)
                 X         Y         Z
 ----------------------------------------
     1 C     0.000022  0.000007  0.000075
     2 C     0.000053  0.000051 -0.000059
     3 C     0.000117 -0.000017 -0.000005
     4 C     0.000006 -0.000160  0.000050
     5 C    -0.000066  0.000036 -0.000032
     6 C    -0.000013 -0.000019  0.000076
     7 C    -0.000087  0.000138 -0.000006
     8 C    -0.000003  0.000087 -0.000093
     9 Cl    0.000030  0.000132  0.000015
    10 Cl   -0.000086  0.000132 -0.000013
    11 H     0.000038 -0.000075  0.000019
    12 H     0.000111 -0.000057  0.000030
    13 H     0.000088 -0.000039  0.000014
    14 H     0.000069 -0.000109  0.000004
    15 H    -0.000025 -0.000104  0.000008
    16 H    -0.000026 -0.000080  0.000004
    17 H    -0.000059 -0.000009 -0.000019
    18 H     0.000012  0.000019 -0.000019
    19 H    -0.000102  0.000016 -0.000023
    20 H    -0.000081  0.000051 -0.000025
 ----------------------------------------
 
---------------------------------------------------------
Geometry Convergence after Step  14       ** CONVERGED **
---------------------------------------------------------
current energy                               -3.91332082 Hartree
energy change                      -0.00000030     0.00020000    T
constrained gradient max            0.00009460     0.00010000    T
constrained gradient rms            0.00003400     0.00006667    T
gradient max                        0.00009460
gradient rms                        0.00003400
cart. step max                      0.00032164     0.01000000    T
cart. step rms                      0.00011405     0.00666667    T
 
Geometry optimization converged

Optimized geometry:

--------
Geometry
--------
Formula: C8H10Cl2
Atoms
  Index Symbol   x (angstrom)   y (angstrom)   z (angstrom)
      1      C    -0.17905291     0.84896324     0.31666570
      2      C    -1.10906003     0.16515797    -0.04867982
      3      C    -2.46970383    -0.34044368    -0.15340028
      4      C    -3.25210046     0.19344472     1.09233633
      5      C    -3.06922818     1.70921888     1.39017037
      6      C    -1.86860664     2.13902460     2.30341941
      7      C    -0.65336178     2.84083559     1.63433887
      8      C     0.43999994     1.88818698     1.08648481
      9     Cl     1.37600914     1.14028241     2.51425994
     10     Cl     1.65237733     2.86921523     0.08920026
     11      H    -2.93573887     0.03099137    -1.07829110
     12      H    -2.51284452    -1.43715328    -0.19167871
     13      H    -2.94228373    -0.38726616     1.97114166
     14      H    -4.31693154    -0.01962009     0.92759836
     15      H    -3.98729940     2.03925972     1.89253460
     16      H    -3.03274443     2.26488557     0.44204709
     17      H    -2.25699174     2.85736263     3.03622596
     18      H    -1.51322841     1.28108174     2.88812889
     19      H    -0.99483213     3.44332838     0.78325108
     20      H    -0.16696781     3.51868420     2.34420658

Total System Charge              0.00000

Performing a single point calculation on the final geometry ...

 *** adf ***



 ===========================
 A T T A C H E D   F I L E S
 ===========================
  
 Restart/tmp/amstmp_c5_fragB_opt_kid0.374661322/GO1_GOStep14.rkf*** GO1_GOStep14 ***



 ===============================
 M O D E L   P A R A M E T E R S
 ===============================
  
 DENSITY FUNCTIONAL POTENTIAL (scf)
    LDA:                               Exchange only                           == Not Default ==
    Gradient Corrections:              Becke88 LYP                             == Not Default ==

 SPIN  (restricted / unrestr.)
    Molecule:                          Restricted                               
    Fragments:                         Restricted                               

 OTHER ASPECTS
    Relativistic Corrections:          scalar (ZORA,MAPA)                       

    Nuclear Charge Density Model:      Point Charge Nuclei                      
    Core Treatment:                    Frozen Orbital(s)                        

    Hyperfine or Zeeman Interaction:   ---                                      

 Settings for Grimme D3 dispersion correction

      damping                        BJ
      s6                          1.000
      s8                          2.700
      a1                          0.430
      a2                          4.236

 Other (technical) parameters

      alpha                      14.000
      version                         4
 



 ===============
 G E O M E T R Y  ***  3D  Molecule  ***
 ===============
  

 ATOMS
 =====                            X Y Z                    CHARGE
                                (Angstrom)             Nucl     +Core       At.Mass
                       --------------------------    ----------------       -------
    1  C              -0.1791    0.8490    0.3167      6.00      6.00       12.0000
    2  C              -1.1091    0.1652   -0.0487      6.00      6.00       12.0000
    3  C              -2.4697   -0.3404   -0.1534      6.00      6.00       12.0000
    4  C              -3.2521    0.1934    1.0923      6.00      6.00       12.0000
    5  C              -3.0692    1.7092    1.3902      6.00      6.00       12.0000
    6  C              -1.8686    2.1390    2.3034      6.00      6.00       12.0000
    7  C              -0.6534    2.8408    1.6343      6.00      6.00       12.0000
    8  C               0.4400    1.8882    1.0865      6.00      6.00       12.0000
    9  Cl              1.3760    1.1403    2.5143     17.00     17.00       34.9689
   10  Cl              1.6524    2.8692    0.0892     17.00     17.00       34.9689
   11  H              -2.9357    0.0310   -1.0783      1.00      1.00        1.0078
   12  H              -2.5128   -1.4372   -0.1917      1.00      1.00        1.0078
   13  H              -2.9423   -0.3873    1.9711      1.00      1.00        1.0078
   14  H              -4.3169   -0.0196    0.9276      1.00      1.00        1.0078
   15  H              -3.9873    2.0393    1.8925      1.00      1.00        1.0078
   16  H              -3.0327    2.2649    0.4420      1.00      1.00        1.0078
   17  H              -2.2570    2.8574    3.0362      1.00      1.00        1.0078
   18  H              -1.5132    1.2811    2.8881      1.00      1.00        1.0078
   19  H              -0.9948    3.4433    0.7833      1.00      1.00        1.0078
   20  H              -0.1670    3.5187    2.3442      1.00      1.00        1.0078


 FRAGMENTS
 =========                                     Atoms in this Fragment     Cart. coord.s (Angstrom)
                                               -------------------------------------------------------
    1  C                                                 1  C           -0.1791    0.8490    0.3167
    2  C                                                 2  C           -1.1091    0.1652   -0.0487
    3  C                                                 3  C           -2.4697   -0.3404   -0.1534
    4  C                                                 4  C           -3.2521    0.1934    1.0923
    5  C                                                 5  C           -3.0692    1.7092    1.3902
    6  C                                                 6  C           -1.8686    2.1390    2.3034
    7  C                                                 7  C           -0.6534    2.8408    1.6343
    8  C                                                 8  C            0.4400    1.8882    1.0865
    9  Cl                                                9  Cl           1.3760    1.1403    2.5143
   10  Cl                                               10  Cl           1.6524    2.8692    0.0892
   11  H                                                11  H           -2.9357    0.0310   -1.0783
   12  H                                                12  H           -2.5128   -1.4372   -0.1917
   13  H                                                13  H           -2.9423   -0.3873    1.9711
   14  H                                                14  H           -4.3169   -0.0196    0.9276
   15  H                                                15  H           -3.9873    2.0393    1.8925
   16  H                                                16  H           -3.0327    2.2649    0.4420
   17  H                                                17  H           -2.2570    2.8574    3.0362
   18  H                                                18  H           -1.5132    1.2811    2.8881
   19  H                                                19  H           -0.9948    3.4433    0.7833
   20  H                                                20  H           -0.1670    3.5187    2.3442



 =====================================
 S Y M M E T R Y ,   E L E C T R O N S
 =====================================
  
 Symmetry: NOSYM

 Irreducible Representations, including subspecies
 -------------------------------------------------
 A


 Configuration of Valence Electrons
 ==================================
 ( determined in the SCF procedure )

 Total:   92

 Net Charge: 0 (Nuclei minus Electrons)

 Aufbau principle for MO occupations will be applied through SCF cycle no.     100
 Thereafter, the program will assign electrons to MOs that are spatially
 similar to the occupied MOs in a "reference" cycle ("KeepOrbitals").
 The reference cycle is always the PREVIOUS cycle: it will evolve with
 the SCF procedure.
 ***************************************************************************************************



                                      ****************************************
                                      *  B U I L D : (Fragments, Functions)  *
                                      ****************************************
  



 =======
 S F O s  ***  (Symmetrized Fragment Orbitals)  ***
 =======
  
 SFOs are linear combinations of (valence) Fragment Orbitals (FOs), such that the SFOs transform as the
 irreducible representations of the (molecular) symmetry group. Each SFO is therefore characterized by
 an irrep of the molecule and by a few (or only one) generating FOs.
 The SFOs constitute a symmetry-adapted basis for the Fock matrix. The MO eigenvector coefficients in
 this basis provide a direct interpretation of the MOs in terms of Frontier Orbital Theory.

 The SFOs are combined with auxiliary Core Functions (CFs) to ensure orthogonalization on the (frozen)
 Core Orbitals (COs). The Core-orthogonalized SFOs (CSFOs) constitute the true Fock basis.

 The FOs, and hence also the (C)SFOs are combinations of the elementary basis functions (BAS). The basis
 functions that participate in the description of the SFOs depend on the irrep. The indices of the
 involved functions are printed below for each irrep.
 (The complete list of primitive basis functions is printed in another section)

 Total nr. of (C)SFOs (summation over all irreps) :   386

 NOTE: a (C)SFO that is defined as a combination of more than one FO is usually NOT normalized.



                                       === A ===
 Nr. of SFOs :  386
 Cartesian basis functions that participate in this irrep (total number =   436) :
      1     2     3     4     5     6     9    12     7    10
     13     8    11    14    15    16    17    18    19    20
     21    22    23    24    25    26    27    28    29    30
     31    32    33    34    35    36    39    42    37    40
     43    38    41    44    45    46    47    48    49    50
     51    52    53    54    55    56    57    58    59    60
     61    62    63    64    65    66    69    72    67    70
     73    68    71    74    75    76    77    78    79    80
     81    82    83    84    85    86    87    88    89    90
     91    92    93    94    95    96    99   102    97   100
    103    98   101   104   105   106   107   108   109   110
    111   112   113   114   115   116   117   118   119   120
    121   122   123   124   125   126   129   132   127   130
    133   128   131   134   135   136   137   138   139   140
    141   142   143   144   145   146   147   148   149   150
    151   152   153   154   155   156   159   162   157   160
    163   158   161   164   165   166   167   168   169   170
    171   172   173   174   175   176   177   178   179   180
    181   182   183   184   185   186   189   192   187   190
    193   188   191   194   195   196   197   198   199   200
    201   202   203   204   205   206   207   208   209   210
    211   212   213   214   215   216   219   222   217   220
    223   218   221   224   225   226   227   228   229   230
    231   232   233   234   235   236   237   238   239   240
    241   242   243   244   251   252   253   245   248   254
    257   260   246   249   255   258   261   247   250   256
    259   262   263   264   265   266   267   268   269   270
    271   272   273   274   275   276   277   278   279   280
    281   282   289   290   291   283   286   292   295   298
    284   287   293   296   299   285   288   294   297   300
    301   302   303   304   305   306   307   308   309   310
    311   312   313   314   315   316   317   318   319   320
    321   322   323   324   325   326   327   328   329   330
    331   332   333   334   335   336   337   338   339   340
    341   342   343   344   345   346   347   348   349   350
    351   352   353   354   355   356   357   358   359   360
    361   362   363   364   365   366   367   368   369   370
    371   372   373   374   375   376   377   378   379   380
    381   382   383   384   385   386   387   388   389   390
    391   392   393   394   395   396   397   398   399   400
    401   402   403   404   405   406   407   408   409   410
    411   412   413   414   415   416   417   418   419   420
    421   422   423   424   425   426   427   428   429   430
    431   432   433   434   435   436

    SFO  (index         Fragment          Generating    Expansion in Fragment Orbitals
  indx  incl.CFs)   Occup   Orb.Energy   FragmentType  Coeff.   Orbital     on Fragment
 --------------------------------------------------------------------------------------
     1       1      2.000     -10.066 au  C             1.00      1 S               1
                        (    -273.921 eV)
     2       2      2.000      -0.501 au  C             1.00      2 S               1
                        (     -13.620 eV)
     3       3       --         0.373 au  C             1.00      3 S               1
                        (      10.158 eV)
     4       4       --         5.405 au  C             1.00      4 S               1
                        (     147.073 eV)
     5       5       --        49.848 au  C             1.00      5 S               1
                        (    1356.422 eV)
     6       6      0.667      -0.193 au  C             1.00      1 P:x             1
                        (      -5.239 eV)
     7       7       --         0.169 au  C             1.00      2 P:x             1
                        (       4.589 eV)
     8       8       --         2.013 au  C             1.00      3 P:x             1
                        (      54.789 eV)
     9       9      0.667      -0.193 au  C             1.00      1 P:y             1
                        (      -5.239 eV)
    10      10       --         0.169 au  C             1.00      2 P:y             1
                        (       4.589 eV)
    11      11       --         2.013 au  C             1.00      3 P:y             1
                        (      54.789 eV)
    12      12      0.667      -0.193 au  C             1.00      1 P:z             1
                        (      -5.239 eV)
    13      13       --         0.169 au  C             1.00      2 P:z             1
                        (       4.589 eV)
    14      14       --         2.013 au  C             1.00      3 P:z             1
                        (      54.789 eV)
    15      15       --         1.243 au  C             1.00      1 D:z2            1
                        (      33.824 eV)
    16      16       --         1.243 au  C             1.00      1 D:x2-y2         1
                        (      33.824 eV)
    17      17       --         1.243 au  C             1.00      1 D:xy            1
                        (      33.824 eV)
    18      18       --         1.243 au  C             1.00      1 D:xz            1
                        (      33.824 eV)
    19      19       --         1.243 au  C             1.00      1 D:yz            1
                        (      33.824 eV)
    20      20       --         4.016 au  C             1.00      1 F:z3            1
                        (     109.271 eV)
    21      21       --         4.016 au  C             1.00      1 F:z             1
                        (     109.271 eV)
    22      22       --         4.016 au  C             1.00      1 F:xyz           1
                        (     109.271 eV)
    23      23       --         4.016 au  C             1.00      1 F:z2x           1
                        (     109.271 eV)
    24      24       --         4.016 au  C             1.00      1 F:z2y           1
                        (     109.271 eV)
    25      25       --         4.016 au  C             1.00      1 F:x             1
                        (     109.271 eV)
    26      26       --         4.016 au  C             1.00      1 F:y             1
                        (     109.271 eV)
    27      27      2.000     -10.066 au  C             1.00      1 S               2
                        (    -273.921 eV)
    28      28      2.000      -0.501 au  C             1.00      2 S               2
                        (     -13.620 eV)
    29      29       --         0.373 au  C             1.00      3 S               2
                        (      10.158 eV)
    30      30       --         5.405 au  C             1.00      4 S               2
                        (     147.073 eV)
    31      31       --        49.848 au  C             1.00      5 S               2
                        (    1356.422 eV)
    32      32      0.667      -0.193 au  C             1.00      1 P:x             2
                        (      -5.239 eV)
    33      33       --         0.169 au  C             1.00      2 P:x             2
                        (       4.589 eV)
    34      34       --         2.013 au  C             1.00      3 P:x             2
                        (      54.789 eV)
    35      35      0.667      -0.193 au  C             1.00      1 P:y             2
                        (      -5.239 eV)
    36      36       --         0.169 au  C             1.00      2 P:y             2
                        (       4.589 eV)
    37      37       --         2.013 au  C             1.00      3 P:y             2
                        (      54.789 eV)
    38      38      0.667      -0.193 au  C             1.00      1 P:z             2
                        (      -5.239 eV)
    39      39       --         0.169 au  C             1.00      2 P:z             2
                        (       4.589 eV)
    40      40       --         2.013 au  C             1.00      3 P:z             2
                        (      54.789 eV)
    41      41       --         1.243 au  C             1.00      1 D:z2            2
                        (      33.824 eV)
    42      42       --         1.243 au  C             1.00      1 D:x2-y2         2
                        (      33.824 eV)
    43      43       --         1.243 au  C             1.00      1 D:xy            2
                        (      33.824 eV)
    44      44       --         1.243 au  C             1.00      1 D:xz            2
                        (      33.824 eV)
    45      45       --         1.243 au  C             1.00      1 D:yz            2
                        (      33.824 eV)
    46      46       --         4.016 au  C             1.00      1 F:z3            2
                        (     109.271 eV)
    47      47       --         4.016 au  C             1.00      1 F:z             2
                        (     109.271 eV)
    48      48       --         4.016 au  C             1.00      1 F:xyz           2
                        (     109.271 eV)
    49      49       --         4.016 au  C             1.00      1 F:z2x           2
                        (     109.271 eV)
    50      50       --         4.016 au  C             1.00      1 F:z2y           2
                        (     109.271 eV)
    51      51       --         4.016 au  C             1.00      1 F:x             2
                        (     109.271 eV)
    52      52       --         4.016 au  C             1.00      1 F:y             2
                        (     109.271 eV)
    53      53      2.000     -10.066 au  C             1.00      1 S               3
                        (    -273.921 eV)
    54      54      2.000      -0.501 au  C             1.00      2 S               3
                        (     -13.620 eV)
    55      55       --         0.373 au  C             1.00      3 S               3
                        (      10.158 eV)
    56      56       --         5.405 au  C             1.00      4 S               3
                        (     147.073 eV)
    57      57       --        49.848 au  C             1.00      5 S               3
                        (    1356.422 eV)
    58      58      0.667      -0.193 au  C             1.00      1 P:x             3
                        (      -5.239 eV)
    59      59       --         0.169 au  C             1.00      2 P:x             3
                        (       4.589 eV)
    60      60       --         2.013 au  C             1.00      3 P:x             3
                        (      54.789 eV)
    61      61      0.667      -0.193 au  C             1.00      1 P:y             3
                        (      -5.239 eV)
    62      62       --         0.169 au  C             1.00      2 P:y             3
                        (       4.589 eV)
    63      63       --         2.013 au  C             1.00      3 P:y             3
                        (      54.789 eV)
    64      64      0.667      -0.193 au  C             1.00      1 P:z             3
                        (      -5.239 eV)
    65      65       --         0.169 au  C             1.00      2 P:z             3
                        (       4.589 eV)
    66      66       --         2.013 au  C             1.00      3 P:z             3
                        (      54.789 eV)
    67      67       --         1.243 au  C             1.00      1 D:z2            3
                        (      33.824 eV)
    68      68       --         1.243 au  C             1.00      1 D:x2-y2         3
                        (      33.824 eV)
    69      69       --         1.243 au  C             1.00      1 D:xy            3
                        (      33.824 eV)
    70      70       --         1.243 au  C             1.00      1 D:xz            3
                        (      33.824 eV)
    71      71       --         1.243 au  C             1.00      1 D:yz            3
                        (      33.824 eV)
    72      72       --         4.016 au  C             1.00      1 F:z3            3
                        (     109.271 eV)
    73      73       --         4.016 au  C             1.00      1 F:z             3
                        (     109.271 eV)
    74      74       --         4.016 au  C             1.00      1 F:xyz           3
                        (     109.271 eV)
    75      75       --         4.016 au  C             1.00      1 F:z2x           3
                        (     109.271 eV)
    76      76       --         4.016 au  C             1.00      1 F:z2y           3
                        (     109.271 eV)
    77      77       --         4.016 au  C             1.00      1 F:x             3
                        (     109.271 eV)
    78      78       --         4.016 au  C             1.00      1 F:y             3
                        (     109.271 eV)
    79      79      2.000     -10.066 au  C             1.00      1 S               4
                        (    -273.921 eV)
    80      80      2.000      -0.501 au  C             1.00      2 S               4
                        (     -13.620 eV)
    81      81       --         0.373 au  C             1.00      3 S               4
                        (      10.158 eV)
    82      82       --         5.405 au  C             1.00      4 S               4
                        (     147.073 eV)
    83      83       --        49.848 au  C             1.00      5 S               4
                        (    1356.422 eV)
    84      84      0.667      -0.193 au  C             1.00      1 P:x             4
                        (      -5.239 eV)
    85      85       --         0.169 au  C             1.00      2 P:x             4
                        (       4.589 eV)
    86      86       --         2.013 au  C             1.00      3 P:x             4
                        (      54.789 eV)
    87      87      0.667      -0.193 au  C             1.00      1 P:y             4
                        (      -5.239 eV)
    88      88       --         0.169 au  C             1.00      2 P:y             4
                        (       4.589 eV)
    89      89       --         2.013 au  C             1.00      3 P:y             4
                        (      54.789 eV)
    90      90      0.667      -0.193 au  C             1.00      1 P:z             4
                        (      -5.239 eV)
    91      91       --         0.169 au  C             1.00      2 P:z             4
                        (       4.589 eV)
    92      92       --         2.013 au  C             1.00      3 P:z             4
                        (      54.789 eV)
    93      93       --         1.243 au  C             1.00      1 D:z2            4
                        (      33.824 eV)
    94      94       --         1.243 au  C             1.00      1 D:x2-y2         4
                        (      33.824 eV)
    95      95       --         1.243 au  C             1.00      1 D:xy            4
                        (      33.824 eV)
    96      96       --         1.243 au  C             1.00      1 D:xz            4
                        (      33.824 eV)
    97      97       --         1.243 au  C             1.00      1 D:yz            4
                        (      33.824 eV)
    98      98       --         4.016 au  C             1.00      1 F:z3            4
                        (     109.271 eV)
    99      99       --         4.016 au  C             1.00      1 F:z             4
                        (     109.271 eV)
   100     100       --         4.016 au  C             1.00      1 F:xyz           4
                        (     109.271 eV)
   101     101       --         4.016 au  C             1.00      1 F:z2x           4
                        (     109.271 eV)
   102     102       --         4.016 au  C             1.00      1 F:z2y           4
                        (     109.271 eV)
   103     103       --         4.016 au  C             1.00      1 F:x             4
                        (     109.271 eV)
   104     104       --         4.016 au  C             1.00      1 F:y             4
                        (     109.271 eV)
   105     105      2.000     -10.066 au  C             1.00      1 S               5
                        (    -273.921 eV)
   106     106      2.000      -0.501 au  C             1.00      2 S               5
                        (     -13.620 eV)
   107     107       --         0.373 au  C             1.00      3 S               5
                        (      10.158 eV)
   108     108       --         5.405 au  C             1.00      4 S               5
                        (     147.073 eV)
   109     109       --        49.848 au  C             1.00      5 S               5
                        (    1356.422 eV)
   110     110      0.667      -0.193 au  C             1.00      1 P:x             5
                        (      -5.239 eV)
   111     111       --         0.169 au  C             1.00      2 P:x             5
                        (       4.589 eV)
   112     112       --         2.013 au  C             1.00      3 P:x             5
                        (      54.789 eV)
   113     113      0.667      -0.193 au  C             1.00      1 P:y             5
                        (      -5.239 eV)
   114     114       --         0.169 au  C             1.00      2 P:y             5
                        (       4.589 eV)
   115     115       --         2.013 au  C             1.00      3 P:y             5
                        (      54.789 eV)
   116     116      0.667      -0.193 au  C             1.00      1 P:z             5
                        (      -5.239 eV)
   117     117       --         0.169 au  C             1.00      2 P:z             5
                        (       4.589 eV)
   118     118       --         2.013 au  C             1.00      3 P:z             5
                        (      54.789 eV)
   119     119       --         1.243 au  C             1.00      1 D:z2            5
                        (      33.824 eV)
   120     120       --         1.243 au  C             1.00      1 D:x2-y2         5
                        (      33.824 eV)
   121     121       --         1.243 au  C             1.00      1 D:xy            5
                        (      33.824 eV)
   122     122       --         1.243 au  C             1.00      1 D:xz            5
                        (      33.824 eV)
   123     123       --         1.243 au  C             1.00      1 D:yz            5
                        (      33.824 eV)
   124     124       --         4.016 au  C             1.00      1 F:z3            5
                        (     109.271 eV)
   125     125       --         4.016 au  C             1.00      1 F:z             5
                        (     109.271 eV)
   126     126       --         4.016 au  C             1.00      1 F:xyz           5
                        (     109.271 eV)
   127     127       --         4.016 au  C             1.00      1 F:z2x           5
                        (     109.271 eV)
   128     128       --         4.016 au  C             1.00      1 F:z2y           5
                        (     109.271 eV)
   129     129       --         4.016 au  C             1.00      1 F:x             5
                        (     109.271 eV)
   130     130       --         4.016 au  C             1.00      1 F:y             5
                        (     109.271 eV)
   131     131      2.000     -10.066 au  C             1.00      1 S               6
                        (    -273.921 eV)
   132     132      2.000      -0.501 au  C             1.00      2 S               6
                        (     -13.620 eV)
   133     133       --         0.373 au  C             1.00      3 S               6
                        (      10.158 eV)
   134     134       --         5.405 au  C             1.00      4 S               6
                        (     147.073 eV)
   135     135       --        49.848 au  C             1.00      5 S               6
                        (    1356.422 eV)
   136     136      0.667      -0.193 au  C             1.00      1 P:x             6
                        (      -5.239 eV)
   137     137       --         0.169 au  C             1.00      2 P:x             6
[...]
                                    1.08%     1 P:z            11.051  0.00    11 H
       3.396  0.00    63 A         19.28%     2 P:x             4.589  0.00     3 C
                                   12.93%     1 P:x            -5.239  0.67     7 C
                                  -11.88%     3 S              10.158  0.00     2 C
                                    7.27%     1 P:x            -5.239  0.67     3 C
                                    7.21%     1 P:x            -5.239  0.67     8 C
                                    5.67%     1 P:y            -5.239  0.67     8 C
                                    5.45%     2 S             -13.620  2.00     2 C
                                    5.32%     2 P:x             4.589  0.00     2 C
                                    4.80%     1 P:z            -5.239  0.67     4 C
                                    4.61%     1 P:y            -5.239  0.67     7 C
                                    4.47%     2 P:x             4.589  0.00     8 C
                                   -4.19%     2 P:y             4.589  0.00     8 C
                                    4.18%     2 S             -13.620  2.00     3 C
                                    3.92%     2 P:z             4.589  0.00     1 C
                                    3.76%     2 P:z             4.589  0.00     4 C
                                   -3.48%     3 S              10.158  0.00     3 C
                                    3.34%     2 S             -13.620  2.00     7 C
                                   -3.28%     3 S              10.158  0.00     8 C
                                    3.23%     1 S              -6.532  1.00    13 H
                                    3.06%     2 S             -13.620  2.00     8 C
                                    3.03%     2 P:y             4.589  0.00     1 C
                                    2.86%     1 P:x            -5.239  0.67     2 C
                                   -2.51%     3 S              10.158  0.00     7 C
                                    2.19%     1 P:x            -5.239  0.67     5 C
                                   -1.96%     4 S               5.292  0.00    10 Cl
                                    1.93%     1 S              -6.532  1.00    17 H
                                    1.91%     1 P:y            -5.239  0.67     3 C
                                    1.80%     1 P:y            -5.239  0.67     1 C
                                    1.67%     3 P:y             6.147  0.00    10 Cl
                                    1.66%     2 P:x             4.589  0.00     5 C
                                   -1.65%     4 S               5.292  0.00     9 Cl
                                    1.57%     2 P:y             4.589  0.00     3 C
                                    1.57%     1 S              -6.532  1.00    20 H
                                    1.51%     1 P:z            -5.239  0.67     8 C
                                   -1.44%     2 S               2.394  0.00    17 H
                                   -1.26%     2 S               2.394  0.00    13 H
                                    1.23%     2 P:y             4.589  0.00     5 C
                                   -1.17%     2 P:z             4.589  0.00     8 C
                                    1.15%     2 P:z             4.589  0.00     2 C
                                   -1.11%     2 P:y             4.589  0.00     2 C
                                   -1.08%     2 P:z             4.589  0.00     6 C
                                    1.00%     1 P:z            11.051  0.00    14 H

 Energy gradients wrt nuclear displacements
 ==========================================

     Atom      Cartesian (a.u./angstrom)
                 X         Y         Z
 ----------------------------------------
     1 C     0.000022  0.000007  0.000075
     2 C     0.000054  0.000052 -0.000058
     3 C     0.000118 -0.000017 -0.000005
     4 C     0.000006 -0.000160  0.000050
     5 C    -0.000066  0.000036 -0.000032
     6 C    -0.000013 -0.000019  0.000076
     7 C    -0.000086  0.000138 -0.000006
     8 C    -0.000004  0.000087 -0.000093
     9 Cl    0.000030  0.000132  0.000015
    10 Cl   -0.000086  0.000132 -0.000013
    11 H     0.000038 -0.000075  0.000019
    12 H     0.000111 -0.000057  0.000030
    13 H     0.000088 -0.000039  0.000014
    14 H     0.000069 -0.000110  0.000004
    15 H    -0.000025 -0.000104  0.000008
    16 H    -0.000026 -0.000080  0.000004
    17 H    -0.000059 -0.000009 -0.000019
    18 H     0.000012  0.000019 -0.000019
    19 H    -0.000102  0.000016 -0.000023
    20 H    -0.000081  0.000051 -0.000025
 ----------------------------------------



 =======================================================================
 Electrostatic potential at the Nuclei due to electrons and other nuclei
 =======================================================================
  
         Atom                  Potential
         ----                  ---------
     1)   C                  14.78900303
     2)   C                  14.78123576
     3)   C                  14.74590247
     4)   C                  14.76630180
     5)   C                  14.77282196
     6)   C                  14.77282942
     7)   C                  14.76217997
     8)   C                  14.64645449
     9)   Cl                 64.86838952
    10)   Cl                 64.86740832
    11)   H                   1.08804419
    12)   H                   1.08909101
    13)   H                   1.10974714
    14)   H                   1.10839738
    15)   H                   1.11640462
    16)   H                   1.11169355
    17)   H                   1.11485078
    18)   H                   1.11280773
    19)   H                   1.09954969
    20)   H                   1.10381814
 Mulliken charges used for AMS results%charges...


    =====================
     CALCULATION RESULTS
    =====================

Energy (hartree)            -3.91332081

Gradients (hartree/bohr)
  Index   Atom            d/dx            d/dy            d/dz
      1      C    0.0000115466    0.0000036297    0.0000398420
      2      C    0.0000284588    0.0000275934   -0.0000308173
      3      C    0.0000621887   -0.0000088206   -0.0000028712
      4      C    0.0000030755   -0.0000846866    0.0000264398
      5      C   -0.0000347791    0.0000189914   -0.0000171090
      6      C   -0.0000069167   -0.0000099946    0.0000403410
      7      C   -0.0000457729    0.0000728961   -0.0000032403
      8      C   -0.0000018580    0.0000460094   -0.0000494387
      9     Cl    0.0000157042    0.0000699509    0.0000077058
     10     Cl   -0.0000454225    0.0000696561   -0.0000069079
     11      H    0.0000202835   -0.0000396645    0.0000101617
     12      H    0.0000589377   -0.0000299942    0.0000158726
     13      H    0.0000467255   -0.0000208374    0.0000073523
     14      H    0.0000362641   -0.0000579507    0.0000019352
     15      H   -0.0000130071   -0.0000549295    0.0000040519
     16      H   -0.0000135518   -0.0000425737    0.0000021607
     17      H   -0.0000313374   -0.0000045722   -0.0000100120
     18      H    0.0000061150    0.0000101791   -0.0000100453
     19      H   -0.0000537294    0.0000082493   -0.0000120344
     20      H   -0.0000429247    0.0000268685   -0.0000133871


--------------
Atomic charges
--------------
  Index   Atom    Charge
      1      C    0.0145
      2      C   -0.0066
      3      C    0.4177
      4      C    0.4293
      5      C    0.4155
      6      C    0.4160
      7      C    0.4394
      8      C    0.0836
      9     Cl   -0.1525
     10     Cl   -0.1482
     11      H   -0.1776
     12      H   -0.1804
     13      H   -0.1980
     14      H   -0.2026
     15      H   -0.1988
     16      H   -0.2071
     17      H   -0.1950
     18      H   -0.1910
     19      H   -0.1857
     20      H   -0.1727


Dipole moment vector    (Debye):    -4.26684190   -0.26486160    0.14308005
              magnitude (Debye):     4.27744823


-----------------------
Molecular orbitals info
-----------------------
n orbitals:              386
n spin:                    1

Note: only printing virtual orbitals with
      energy smaller than HOMO + 100. eV

HOMO (eV):              -6.5680
LUMO (eV):              -1.7730
HOMO-LUMO gap (eV):      4.7950

   Index   Energy (eV)    Occupation
     259       93.0936         0.000       
     258       92.5844         0.000       
     257       91.6355         0.000       
     256       91.1910         0.000       
     255       90.6142         0.000       
     254       90.0802         0.000       
     253       89.7130         0.000       
     252       88.4093         0.000       
     251       87.2778         0.000       
     250       86.0943         0.000       
     249       85.1669         0.000       
     248       84.8519         0.000       
     247       84.1273         0.000       
     246       83.6727         0.000       
     245       83.1714         0.000       
     244       82.4852         0.000       
     243       82.2036         0.000       
     242       81.8924         0.000       
     241       80.8116         0.000       
     240       80.5352         0.000       
     239       80.2860         0.000       
     238       79.3107         0.000       
     237       79.1310         0.000       
     236       78.6982         0.000       
     235       78.2508         0.000       
     234       77.7772         0.000       
     233       77.3841         0.000       
     232       76.6092         0.000       
     231       76.0626         0.000       
     230       75.8410         0.000       
     229       75.1174         0.000       
     228       74.6545         0.000       
     227       73.9605         0.000       
     226       73.3021         0.000       
     225       72.7151         0.000       
     224       72.4578         0.000       
     223       71.5226         0.000       
     222       71.2354         0.000       
     221       70.4599         0.000       
     220       68.6650         0.000       
     219       68.1680         0.000       
     218       67.3387         0.000       
     217       66.7681         0.000       
     216       66.3037         0.000       
     215       65.8848         0.000       
     214       65.2884         0.000       
     213       64.7207         0.000       
     212       63.8919         0.000       
     211       63.3634         0.000       
     210       63.2685         0.000       
     209       62.6327         0.000       
     208       62.3130         0.000       
     207       61.8762         0.000       
     206       61.1393         0.000       
     205       60.2559         0.000       
     204       58.7256         0.000       
     203       58.6737         0.000       
     202       58.1616         0.000       
     201       57.6697         0.000       
     200       57.3913         0.000       
     199       56.6454         0.000       
     198       55.8471         0.000       
     197       55.6543         0.000       
     196       54.9727         0.000       
     195       54.7442         0.000       
     194       53.7455         0.000       
     193       53.1039         0.000       
     192       52.4535         0.000       
     191       52.1316         0.000       
     190       51.8122         0.000       
     189       51.2889         0.000       
     188       49.7976         0.000       
     187       49.3770         0.000       
     186       48.8630         0.000       
     185       48.0037         0.000       
     184       47.3958         0.000       
     183       47.2963         0.000       
     182       46.5171         0.000       
     181       46.0248         0.000       
     180       45.6911         0.000       
     179       44.8995         0.000       
     178       43.9568         0.000       
     177       43.4371         0.000       
     176       42.9460         0.000       
     175       41.9660         0.000       
     174       41.5658         0.000       
     173       41.1970         0.000       
     172       40.7367         0.000       
     171       40.4006         0.000       
     170       39.8865         0.000       
     169       39.6589         0.000       
     168       39.4594         0.000       
     167       38.6311         0.000       
     166       38.5123         0.000       
     165       37.8326         0.000       
     164       37.3462         0.000       
     163       37.1510         0.000       
     162       36.8573         0.000       
     161       36.7019         0.000       
     160       36.5240         0.000       
     159       36.1902         0.000       
     158       35.7839         0.000       
     157       35.5859         0.000       
     156       35.0974         0.000       
     155       35.0522         0.000       
     154       34.8923         0.000       
     153       34.4652         0.000       
     152       34.0734         0.000       
     151       33.9932         0.000       
     150       33.7404         0.000       
     149       33.5396         0.000       
     148       33.1132         0.000       
     147       32.6421         0.000       
     146       32.4308         0.000       
     145       32.0062         0.000       
     144       31.7926         0.000       
     143       31.4790         0.000       
     142       31.1974         0.000       
     141       30.7646         0.000       
     140       30.6427         0.000       
     139       30.2674         0.000       
     138       29.8451         0.000       
     137       29.2804         0.000       
     136       29.1086         0.000       
     135       28.6594         0.000       
     134       28.4080         0.000       
     133       27.9229         0.000       
     132       27.0973         0.000       
     131       26.8566         0.000       
     130       26.5545         0.000       
     129       26.3977         0.000       
     128       26.0149         0.000       
     127       25.5043         0.000       
     126       24.6803         0.000       
     125       24.4196         0.000       
     124       23.6023         0.000       
     123       22.6620         0.000       
     122       22.1191         0.000       
     121       21.8172         0.000       
     120       20.9286         0.000       
     119       20.8170         0.000       
     118       20.2667         0.000       
     117       19.5343         0.000       
     116       18.2604         0.000       
     115       17.6887         0.000       
     114       17.3292         0.000       
     113       16.6440         0.000       
     112       16.5125         0.000       
     111       16.0383         0.000       
     110       15.2066         0.000       
     109       15.0175         0.000       
     108       14.4626         0.000       
     107       13.9605         0.000       
     106       13.7124         0.000       
     105       13.3609         0.000       
     104       12.6983         0.000       
     103       12.4433         0.000       
     102       12.1415         0.000       
     101       12.1034         0.000       
     100       12.0323         0.000       
      99       11.7295         0.000       
      98       11.2346         0.000       
      97       11.0210         0.000       
      96       10.8932         0.000       
      95       10.8304         0.000       
      94       10.4563         0.000       
      93       10.3218         0.000       
      92       10.1652         0.000       
      91       10.1233         0.000       
      90        9.5633         0.000       
      89        9.3799         0.000       
      88        9.2920         0.000       
      87        9.0149         0.000       
      86        8.7400         0.000       
      85        8.6224         0.000       
      84        8.4020         0.000       
      83        8.2564         0.000       
      82        8.1593         0.000       
      81        7.9916         0.000       
      80        7.9148         0.000       
      79        7.4376         0.000       
      78        7.3600         0.000       
      77        7.0887         0.000       
      76        7.0332         0.000       
      75        6.3345         0.000       
      74        5.9029         0.000       
      73        5.8697         0.000       
      72        5.4654         0.000       
      71        5.3485         0.000       
      70        5.2334         0.000       
      69        4.9673         0.000       
      68        4.6865         0.000       
      67        4.5421         0.000       
      66        4.3683         0.000       
      65        4.0010         0.000       
      64        3.9547         0.000       
      63        3.3959         0.000       
      62        3.2157         0.000       
      61        2.4778         0.000       
      60        2.1424         0.000       
      59        2.0218         0.000       
      58        1.7667         0.000       
      57        1.6163         0.000       
      56        1.3279         0.000       
      55        1.2026         0.000       
      54        0.8390         0.000       
      53        0.5438         0.000       
      52        0.1187         0.000       
      51        0.0355         0.000       
      50       -0.4669         0.000       
      49       -0.8981         0.000       
      48       -1.6773         0.000       
      47       -1.7730         0.000 < LUMO
      46       -6.5680         2.000 < HOMO
      45       -6.6221         2.000       
      44       -6.9952         2.000       
      43       -7.1825         2.000       
      42       -7.5320         2.000       
      41       -7.7747         2.000       
      40       -8.2010         2.000       
      39       -8.2224         2.000       
      38       -8.4629         2.000       
      37       -9.0693         2.000       
      36       -9.7495         2.000       
      35      -10.0045         2.000       
      34      -10.0515         2.000       
      33      -10.8882         2.000       
      32      -11.1698         2.000       
      31      -11.3071         2.000       
      30      -11.6986         2.000       
      29      -12.1228         2.000       
      28      -12.5550         2.000       
      27      -14.5254         2.000       
      26      -15.0213         2.000       
      25      -16.7115         2.000       
      24      -17.3570         2.000       
      23      -18.9811         2.000       
      22      -19.4338         2.000       
      21      -20.1355         2.000       
      20      -20.5767         2.000       
      19      -22.3835         2.000       
      18     -190.1058         2.000       
      17     -190.1142         2.000       
      16     -190.1288         2.000       
      15     -190.1381         2.000       
      14     -190.4117         2.000       
      13     -190.4365         2.000       
      12     -251.1569         2.000       
      11     -251.1810         2.000       
      10     -270.1791         2.000       
       9     -270.3221         2.000       
       8     -270.3262         2.000       
       7     -270.4375         2.000       
       6     -270.5203         2.000       
       5     -270.6725         2.000       
       4     -271.0451         2.000       
       3     -273.7871         2.000       
       2    -2750.4200         2.000       
       1    -2750.4454         2.000       

AMS application finished. Exiting.
NORMAL TERMINATION
     Total cpu time:     852.60
  Total system time:       2.69
 Total elapsed time:     860.07
NORMAL TERMINATION
