
 *******************************************************************************
 *                                                                             *
 *  --------------------------------                                           *
 *   Amsterdam Modeling Suite (AMS)              2026.103                      *
 *  --------------------------------                                           *
 *                                               r260501 2026-05-01 873454b5   *
 *                                                                             *
 *                                                                             *
 *                              =================                              *
 *                              |               |                              *
 *                              |     A M S     |                              *
 *                              |               |                              *
 *                              =================                              *
 *                                                                             *
 *                                                                             *
 *   Online information and documentation:  https://www.scm.com/support/       *
 *   E-mail:  support@scm.com   info@scm.com                                   *
 *                                                                             *
 *   Scientific publications using AMS results must be properly referenced     *
 *   See the User Manuals (or the web site) for recommended citations          *
 *   The terms and conditions of the End User License Agreement apply to       *
 *   the use of AMS, https://www.scm.com/license-terms/                        *
 *                                                                             *
 **********************  x86_64_linux_intel / intelmpi  ************************
 
 Licensed to: Jong-June Jeon / University of Seoul 2026-06-02 13:44:15
 SCM User ID: u30731
  
 AMS 2026.103  RunTime: Jun04-2026 05:00:45  ShM Nodes: 1  Procs: 1

 AMS jobname: c3_eda
 AMS jobid  : 1457677394

 Start   directory: /gpfs/home1/yeseo1ee/projects/eda-asm-prediction/ADF_800/adf_outputs/batch_005/qmrxn20_sn2_A_B_E_E_A_A/
 Results directory: /gpfs/home1/yeseo1ee/projects/eda-asm-prediction/ADF_800/adf_outputs/batch_005/qmrxn20_sn2_A_B_E_E_A_A/c3_eda.results/
 Scratch directory: /tmp/amstmp_c3_eda_kid0.1457677394/

 RNG seed: 2087443516 -1480532720 1524709007 454338124 2001588816 -1363101687 -1886898353 -1228007984



                      ************************************************************************
                      *  ADF 2026.103  RunTime: Jun04-2026 05:00:45  ShM Nodes: 1  Procs: 1  *
                      ************************************************************************
  

       ****************************
       * SINGLE POINT CALCULATION *
       ****************************

--------
Geometry
--------
Formula: C2H7FN3O2
Atoms
  Index Symbol   x (angstrom)   y (angstrom)   z (angstrom)
      1      H     2.36181097    -0.16478277    -0.02978085 adf.f=fA
      2      C     0.50551351     0.07546894     0.09064022 adf.f=fB
      3      H     1.72328407     1.85107429     0.06672152 adf.f=fB
      4      F    -1.06228900     0.00559961     0.28177635 adf.f=fB
      5      C     0.66818624     1.59850896     0.01020331 adf.f=fB
      6      H     0.59248612    -0.52401869    -0.79937200 adf.f=fB
      7      N     0.99826856    -0.62411008     1.25877680 adf.f=fB
      8      O     1.20521225     0.04080617     2.30287701 adf.f=fB
      9      O     0.88242567    -1.86411731     1.26482394 adf.f=fB
     10      N    -0.01690175     2.33389780     1.07410123 adf.f=fB
     11      H     0.43065198     2.04521905     1.93954231 adf.f=fB
     12      H    -0.95161681     1.93941872     1.12043645 adf.f=fB
     13      N     0.15873625     1.97570780    -1.30575269 adf.f=fB
     14      H     0.06272264     2.98623984    -1.28710691 adf.f=fB
     15      H    -0.78274072     1.59772767    -1.35979670 adf.f=fB

Total System Charge             -1.00000


----------------
ADF Engine Input
----------------
 
   Basis
     Type TZ2P
     Core None
   End
   XC
     GGA BLYP
     Dispersion GRIMME3 BJDAMP
   End
   Symmetry NOSYM
   NumericalQuality Normal
   Unrestricted No
   SCF
     Iterations 200
     Converge 1.0e-6
   End
   fragments
     fA c1_fragA_ts.results/adf.rkf
     fB c2_fragB_ts.results/adf.rkf
   end
   etsnocv
     enocv 0.05
     ekmin 0.5
   end
   print etslowdin
   Save TAPE21
 

 Title: *** (NO TITLE) ***

 *** adf ***



 ===========================
 A T T A C H E D   F I L E S
 ===========================
  



 ===============================
 M O D E L   P A R A M E T E R S
 ===============================
  
 DENSITY FUNCTIONAL POTENTIAL (scf)
    LDA:                               Exchange only                           == Not Default ==
    Gradient Corrections:              Becke88 LYP                             == Not Default ==

 SPIN  (restricted / unrestr.)
    Molecule:                          Restricted                               
    Fragments:                         Restricted                               

 OTHER ASPECTS
    Relativistic Corrections:          scalar (ZORA,MAPA)                       

    Nuclear Charge Density Model:      Point Charge Nuclei                      
    Core Treatment:                    Frozen Orbital(s)                        

    Hyperfine or Zeeman Interaction:   ---                                      

 Settings for Grimme D3 dispersion correction

      damping                        BJ
      s6                          1.000
      s8                          2.700
      a1                          0.430
      a2                          4.236

 Other (technical) parameters

      alpha                      14.000
      version                         4
 


 Fragment File(s)
 ----------------
 fA:
         file : c1_fragA_ts.results/adf.rkf
         jobid: 945799166
         title: *** adf ***
 fB:
         file : c2_fragB_ts.results/adf.rkf
         jobid: 400047761
         title: *** adf ***



 ===============
 G E O M E T R Y  ***  3D  Molecule  ***
 ===============
  

 ATOMS
 =====                            X Y Z                    CHARGE
                                (Angstrom)             Nucl     +Core       At.Mass
                       --------------------------    ----------------       -------
    1  H               2.3618   -0.1648   -0.0298      1.00      1.00        1.0078
    2  C               0.5055    0.0755    0.0906      6.00      6.00       12.0000
    3  H               1.7233    1.8511    0.0667      1.00      1.00        1.0078
    4  F              -1.0623    0.0056    0.2818      9.00      9.00       18.9984
    5  C               0.6682    1.5985    0.0102      6.00      6.00       12.0000
    6  H               0.5925   -0.5240   -0.7994      1.00      1.00        1.0078
    7  N               0.9983   -0.6241    1.2588      7.00      7.00       14.0031
    8  O               1.2052    0.0408    2.3029      8.00      8.00       15.9949
    9  O               0.8824   -1.8641    1.2648      8.00      8.00       15.9949
   10  N              -0.0169    2.3339    1.0741      7.00      7.00       14.0031
   11  H               0.4307    2.0452    1.9395      1.00      1.00        1.0078
   12  H              -0.9516    1.9394    1.1204      1.00      1.00        1.0078
   13  N               0.1587    1.9757   -1.3058      7.00      7.00       14.0031
   14  H               0.0627    2.9862   -1.2871      1.00      1.00        1.0078
   15  H              -0.7827    1.5977   -1.3598      1.00      1.00        1.0078


 FRAGMENTS
 =========                                     Atoms in this Fragment     Cart. coord.s (Angstrom)
                                               -------------------------------------------------------
    1  fA                                                1  H            2.3618   -0.1648   -0.0298
    2  fB                                                2  C            0.5055    0.0755    0.0906
                                                         5  C            0.6682    1.5985    0.0102
                                                         3  H            1.7233    1.8511    0.0667
                                                         6  H            0.5925   -0.5240   -0.7994
                                                        11  H            0.4307    2.0452    1.9395
                                                        12  H           -0.9516    1.9394    1.1204
                                                        14  H            0.0627    2.9862   -1.2871
                                                        15  H           -0.7827    1.5977   -1.3598
                                                         4  F           -1.0623    0.0056    0.2818
                                                         7  N            0.9983   -0.6241    1.2588
                                                        10  N           -0.0169    2.3339    1.0741
                                                        13  N            0.1587    1.9757   -1.3058
                                                         8  O            1.2052    0.0408    2.3029
                                                         9  O            0.8824   -1.8641    1.2648


 Interatomic Distance Matrix (Angstrom)
 --------------------------------------

   1)     0.000
   2)     1.876   0.000
   3)     2.117   2.153   0.000
   4)     3.442   1.581   3.348   0.000
   5)     2.445   1.534   1.086   2.368   0.000
   6)     1.963   1.077   2.769   2.046   2.273   0.000
   7)     1.931   1.448   2.841   2.366   2.571   2.100   0.000
   8)     2.612   2.321   2.923   3.038   2.823   3.212   1.255   0.000
   9)     2.599   2.298   3.993   2.871   3.689   2.478   1.245   2.193   0.000
  10)     3.622   2.518   2.068   2.672   1.464   3.471   3.133   2.874   4.297   0.000
  11)     3.534   2.703   2.284   3.023   1.995   3.759   2.813   2.179   3.993   1.016
          0.000
  12)     4.090   2.580   2.876   2.111   1.993   3.484   3.224   3.107   4.225   1.016
          1.610   0.000
  13)     3.326   2.384   2.085   2.809   1.461   2.587   3.747   4.226   4.677   2.413
          3.257   2.668   0.000
  14)     4.098   3.251   2.425   3.551   1.994   3.583   4.516   4.782   5.542   2.451
          3.381   2.814   1.015   0.000
  15)     3.842   2.466   2.895   2.304   1.996   2.590   3.869   4.449   4.653   2.656
          3.544   2.509   1.016   1.627   0.000

 Min. Distance =    1.0153
 Max. Distance =    5.5417



 =====================================
 S Y M M E T R Y ,   E L E C T R O N S
 =====================================
  
 Symmetry: NOSYM

 Irreducible Representations, including subspecies
 -------------------------------------------------
 A


 Configuration of Valence Electrons
 ==================================
 ( determined in the SCF procedure )

 Total:   66

 Net Charge: -1 (Nuclei minus Electrons)

 Aufbau principle for MO occupations will be applied through SCF cycle no.     100
 Thereafter, the program will assign electrons to MOs that are spatially
 similar to the occupied MOs in a "reference" cycle ("KeepOrbitals").
 The reference cycle is always the PREVIOUS cycle: it will evolve with
 the SCF procedure.
 ***************************************************************************************************



                                      ****************************************
                                      *  B U I L D : (Fragments, Functions)  *
                                      ****************************************
  

 The individual fragments are copies of the corresponding 'Master' fragments defined on the fragment files.
 However, they may have been rotated (and translated) with respect to the Master. The local coordinate axes
 of each fragment (which define for instance the spatial orientation in the current molecule of a fragment
 P:x orbital) are not necessarily those of the molecule.
 The local frame (if different from the molecular one) is printed to enable an interpretation of the expan-
 sion of an MO in Fragment Orbitals.



                                              ************************
                                              *  Fragment Type : fA  *
                                              ************************
  

 Fragment no.    1   (in the list of all fragments)
 -----------------
 The local coordinate frame is identical to the molecular frame.

 Check Atomic Coordinates:

                  Master (on file)          After Computed Tranformation               As specified on Input
           ----------------------------     ----------------------------     ---------------------------------
     1)     2.36181  -0.16478  -0.02978      2.36181  -0.16478  -0.02978       1   2.36181  -0.16478  -0.02978



                                              ************************
                                              *  Fragment Type : fB  *
                                              ************************
  

 Fragment no.    2   (in the list of all fragments)
 -----------------
 The local coordinate frame is identical to the molecular frame.

 Check Atomic Coordinates:

                  Master (on file)          After Computed Tranformation               As specified on Input
           ----------------------------     ----------------------------     ---------------------------------
     1)     0.50551   0.07547   0.09064      0.50551   0.07547   0.09064       2   0.50551   0.07547   0.09064
     2)     0.66819   1.59851   0.01020      0.66819   1.59851   0.01020       5   0.66819   1.59851   0.01020
     3)     1.72328   1.85107   0.06672      1.72328   1.85107   0.06672       3   1.72328   1.85107   0.06672
     4)     0.59249  -0.52402  -0.79937      0.59249  -0.52402  -0.79937       6   0.59249  -0.52402  -0.79937
     5)     0.43065   2.04522   1.93954      0.43065   2.04522   1.93954      11   0.43065   2.04522   1.93954
     6)    -0.95162   1.93942   1.12044     -0.95162   1.93942   1.12044      12  -0.95162   1.93942   1.12044
     7)     0.06272   2.98624  -1.28711      0.06272   2.98624  -1.28711      14   0.06272   2.98624  -1.28711
     8)    -0.78274   1.59773  -1.35980     -0.78274   1.59773  -1.35980      15  -0.78274   1.59773  -1.35980
     9)    -1.06229   0.00560   0.28178     -1.06229   0.00560   0.28178       4  -1.06229   0.00560   0.28178
    10)     0.99827  -0.62411   1.25878      0.99827  -0.62411   1.25878       7   0.99827  -0.62411   1.25878
    11)    -0.01690   2.33390   1.07410     -0.01690   2.33390   1.07410      10  -0.01690   2.33390   1.07410
    12)     0.15874   1.97571  -1.30575      0.15874   1.97571  -1.30575      13   0.15874   1.97571  -1.30575
    13)     1.20521   0.04081   2.30288      1.20521   0.04081   2.30288       8   1.20521   0.04081   2.30288
    14)     0.88243  -1.86412   1.26482      0.88243  -1.86412   1.26482       9   0.88243  -1.86412   1.26482



 =======
 S F O s  ***  (Symmetrized Fragment Orbitals)  ***
 =======
  
 SFOs are linear combinations of (valence) Fragment Orbitals (FOs), such that the SFOs transform as the
 irreducible representations of the (molecular) symmetry group. Each SFO is therefore characterized by
 an irrep of the molecule and by a few (or only one) generating FOs.
 The SFOs constitute a symmetry-adapted basis for the Fock matrix. The MO eigenvector coefficients in
 this basis provide a direct interpretation of the MOs in terms of Frontier Orbital Theory.

 The SFOs are combined with auxiliary Core Functions (CFs) to ensure orthogonalization on the (frozen)
 Core Orbitals (COs). The Core-orthogonalized SFOs (CSFOs) constitute the true Fock basis.

 The FOs, and hence also the (C)SFOs are combinations of the elementary basis functions (BAS). The basis
 functions that participate in the description of the SFOs depend on the irrep. The indices of the
 involved functions are printed below for each irrep.
 (The complete list of primitive basis functions is printed in another section)

 Total nr. of (C)SFOs (summation over all irreps) :   285

 NOTE: a (C)SFO that is defined as a combination of more than one FO is usually NOT normalized.



                                       === A ===
 Nr. of SFOs :  285
 Cartesian basis functions that participate in this irrep (total number =   324) :
      1     2     3     4     5     6     7     8     9    10
     11    12    13    14    15    16    17    18    21    24
     19    22    25    20    23    26    27    28    29    30
     31    32    33    34    35    36    37    38    39    40
     41    42    43    44    45    46    47    48    51    54
     49    52    55    50    53    56    57    58    59    60
     61    62    63    64    65    66    67    68    69    70
     71    72    73    74    75    76    77    78    79    80
     81    82    83    84    85    86    87    88    89    90
     91    92    93    94    95    96    97    98    99   100
    101   102   103   104   105   106   107   108   109   110
    111   112   113   114   115   116   117   118   119   120
    121   122   123   124   125   126   127   128   129   130
    131   132   133   134   135   136   137   138   139   140
    141   142   143   144   145   146   147   148   149   150
    153   156   151   154   157   152   155   158   159   160
    161   162   163   164   165   166   167   168   169   170
    171   172   173   174   175   176   177   178   179   180
    183   186   181   184   187   182   185   188   189   190
    191   192   193   194   195   196   197   198   199   200
    201   202   203   204   205   206   207   208   209   210
    213   216   211   214   217   212   215   218   219   220
    221   222   223   224   225   226   227   228   229   230
    231   232   233   234   235   236   237   238   239   240
    243   246   241   244   247   242   245   248   249   250
    251   252   253   254   255   256   257   258   259   260
    261   262   263   264   265   266   267   268   269   270
    273   276   271   274   277   272   275   278   279   280
    281   282   283   284   285   286   287   288   289   290
    291   292   293   294   295   296   297   298   299   300
    303   306   301   304   307   302   305   308   309   310
    311   312   313   314   315   316   317   318   319   320
    321   322   323   324

    SFO  (index         Fragment          Generating    Expansion in Fragment Orbitals
  indx  incl.CFs)   Occup   Orb.Energy   FragmentType  Coeff.   Orbital     on Fragment
 --------------------------------------------------------------------------------------
     1       1      2.000       0.096 au  fA            1.00      1 A               1
                        (       2.603 eV)
     2       2       --         0.328 au  fA            1.00      2 A               1
                        (       8.927 eV)
     3       3       --         0.730 au  fA            1.00      3 A               1
                        (      19.877 eV)
     4       4       --         0.730 au  fA            1.00      4 A               1
                        (      19.877 eV)
     5       5       --         0.730 au  fA            1.00      5 A               1
                        (      19.877 eV)
     6       6       --         1.855 au  fA            1.00      6 A               1
                        (      50.479 eV)
     7       7       --         2.938 au  fA            1.00      7 A               1
                        (      79.959 eV)
     8       8       --         2.938 au  fA            1.00      8 A               1
                        (      79.959 eV)
     9       9       --         2.938 au  fA            1.00      9 A               1
                        (      79.959 eV)
    10      10       --         2.938 au  fA            1.00     10 A               1
                        (      79.959 eV)
    11      11       --         2.938 au  fA            1.00     11 A               1
                        (      79.959 eV)
    12      12      2.000     -24.323 au  fB            1.00      1 A               2
                        (    -661.873 eV)
    13      13      2.000     -18.870 au  fB            1.00      2 A               2
                        (    -513.474 eV)
    14      14      2.000     -18.868 au  fB            1.00      3 A               2
                        (    -513.418 eV)
    15      15      2.000     -14.281 au  fB            1.00      4 A               2
                        (    -388.607 eV)
    16      16      2.000     -14.027 au  fB            1.00      5 A               2
                        (    -381.685 eV)
    17      17      2.000     -14.020 au  fB            1.00      6 A               2
                        (    -381.498 eV)
    18      18      2.000     -10.087 au  fB            1.00      7 A               2
                        (    -274.471 eV)
    19      19      2.000     -10.017 au  fB            1.00      8 A               2
                        (    -272.563 eV)
    20      20      2.000      -1.158 au  fB            1.00      9 A               2
                        (     -31.507 eV)
    21      21      2.000      -1.086 au  fB            1.00     10 A               2
                        (     -29.542 eV)
    22      22      2.000      -0.992 au  fB            1.00     11 A               2
                        (     -26.988 eV)
    23      23      2.000      -0.874 au  fB            1.00     12 A               2
                        (     -23.775 eV)
    24      24      2.000      -0.789 au  fB            1.00     13 A               2
                        (     -21.460 eV)
    25      25      2.000      -0.782 au  fB            1.00     14 A               2
                        (     -21.268 eV)
    26      26      2.000      -0.632 au  fB            1.00     15 A               2
                        (     -17.204 eV)
    27      27      2.000      -0.570 au  fB            1.00     16 A               2
                        (     -15.519 eV)
    28      28      2.000      -0.531 au  fB            1.00     17 A               2
                        (     -14.454 eV)
    29      29      2.000      -0.525 au  fB            1.00     18 A               2
                        (     -14.278 eV)
    30      30      2.000      -0.505 au  fB            1.00     19 A               2
                        (     -13.735 eV)
    31      31      2.000      -0.473 au  fB            1.00     20 A               2
                        (     -12.859 eV)
    32      32      2.000      -0.456 au  fB            1.00     21 A               2
                        (     -12.415 eV)
    33      33      2.000      -0.447 au  fB            1.00     22 A               2
                        (     -12.151 eV)
    34      34      2.000      -0.424 au  fB            1.00     23 A               2
                        (     -11.530 eV)
    35      35      2.000      -0.406 au  fB            1.00     24 A               2
                        (     -11.039 eV)
    36      36      2.000      -0.367 au  fB            1.00     25 A               2
                        (      -9.975 eV)
    37      37      2.000      -0.359 au  fB            1.00     26 A               2
                        (      -9.776 eV)
    38      38      2.000      -0.345 au  fB            1.00     27 A               2
                        (      -9.380 eV)
    39      39      2.000      -0.314 au  fB            1.00     28 A               2
                        (      -8.536 eV)
    40      40      2.000      -0.304 au  fB            1.00     29 A               2
                        (      -8.277 eV)
    41      41      2.000      -0.280 au  fB            1.00     30 A               2
                        (      -7.618 eV)
    42      42      2.000      -0.250 au  fB            1.00     31 A               2
                        (      -6.792 eV)
    43      43      2.000      -0.232 au  fB            1.00     32 A               2
                        (      -6.306 eV)
    44      44       --        -0.177 au  fB            1.00     33 A               2
                        (      -4.821 eV)
    45      45       --        -0.053 au  fB            1.00     34 A               2
                        (      -1.446 eV)
    46      46       --        -0.012 au  fB            1.00     35 A               2
                        (      -0.317 eV)
    47      47       --         0.006 au  fB            1.00     36 A               2
                        (       0.171 eV)
    48      48       --         0.013 au  fB            1.00     37 A               2
                        (       0.343 eV)
    49      49       --         0.021 au  fB            1.00     38 A               2
                        (       0.573 eV)
    50      50       --         0.056 au  fB            1.00     39 A               2
                        (       1.530 eV)
    51      51       --         0.064 au  fB            1.00     40 A               2
                        (       1.729 eV)
    52      52       --         0.075 au  fB            1.00     41 A               2
                        (       2.047 eV)
    53      53       --         0.090 au  fB            1.00     42 A               2
                        (       2.456 eV)
    54      54       --         0.110 au  fB            1.00     43 A               2
                        (       2.995 eV)
    55      55       --         0.132 au  fB            1.00     44 A               2
                        (       3.603 eV)
    56      56       --         0.144 au  fB            1.00     45 A               2
                        (       3.920 eV)
    57      57       --         0.163 au  fB            1.00     46 A               2
                        (       4.443 eV)
    58      58       --         0.179 au  fB            1.00     47 A               2
                        (       4.864 eV)
    59      59       --         0.204 au  fB            1.00     48 A               2
                        (       5.553 eV)
    60      60       --         0.209 au  fB            1.00     49 A               2
                        (       5.679 eV)
    61      61       --         0.219 au  fB            1.00     50 A               2
                        (       5.965 eV)
    62      62       --         0.235 au  fB            1.00     51 A               2
                        (       6.388 eV)
    63      63       --         0.251 au  fB            1.00     52 A               2
                        (       6.837 eV)
    64      64       --         0.262 au  fB            1.00     53 A               2
                        (       7.133 eV)
    65      65       --         0.274 au  fB            1.00     54 A               2
                        (       7.457 eV)
    66      66       --         0.288 au  fB            1.00     55 A               2
                        (       7.848 eV)
    67      67       --         0.305 au  fB            1.00     56 A               2
                        (       8.313 eV)
    68      68       --         0.322 au  fB            1.00     57 A               2
                        (       8.753 eV)
    69      69       --         0.333 au  fB            1.00     58 A               2
                        (       9.068 eV)
    70      70       --         0.344 au  fB            1.00     59 A               2
                        (       9.362 eV)
    71      71       --         0.358 au  fB            1.00     60 A               2
                        (       9.731 eV)
    72      72       --         0.368 au  fB            1.00     61 A               2
                        (      10.027 eV)
    73      73       --         0.399 au  fB            1.00     62 A               2
                        (      10.846 eV)
    74      74       --         0.418 au  fB            1.00     63 A               2
                        (      11.374 eV)
    75      75       --         0.434 au  fB            1.00     64 A               2
                        (      11.800 eV)
    76      76       --         0.450 au  fB            1.00     65 A               2
                        (      12.239 eV)
    77      77       --         0.473 au  fB            1.00     66 A               2
                        (      12.869 eV)
    78      78       --         0.485 au  fB            1.00     67 A               2
                        (      13.188 eV)
    79      79       --         0.495 au  fB            1.00     68 A               2
                        (      13.466 eV)
    80      80       --         0.522 au  fB            1.00     69 A               2
                        (      14.193 eV)
    81      81       --         0.546 au  fB            1.00     70 A               2
                        (      14.854 eV)
    82      82       --         0.561 au  fB            1.00     71 A               2
                        (      15.265 eV)
    83      83       --         0.603 au  fB            1.00     72 A               2
                        (      16.418 eV)
    84      84       --         0.621 au  fB            1.00     73 A               2
                        (      16.902 eV)
    85      85       --         0.649 au  fB            1.00     74 A               2
                        (      17.674 eV)
    86      86       --         0.675 au  fB            1.00     75 A               2
                        (      18.354 eV)
    87      87       --         0.719 au  fB            1.00     76 A               2
                        (      19.573 eV)
    88      88       --         0.726 au  fB            1.00     77 A               2
                        (      19.744 eV)
    89      89       --         0.749 au  fB            1.00     78 A               2
                        (      20.394 eV)
    90      90       --         0.770 au  fB            1.00     79 A               2
                        (      20.966 eV)
    91      91       --         0.808 au  fB            1.00     80 A               2
                        (      21.975 eV)
    92      92       --         0.819 au  fB            1.00     81 A               2
                        (      22.289 eV)
    93      93       --         0.833 au  fB            1.00     82 A               2
                        (      22.673 eV)
    94      94       --         0.870 au  fB            1.00     83 A               2
                        (      23.661 eV)
    95      95       --         0.893 au  fB            1.00     84 A               2
                        (      24.295 eV)
    96      96       --         0.936 au  fB            1.00     85 A               2
                        (      25.470 eV)
    97      97       --         0.965 au  fB            1.00     86 A               2
                        (      26.266 eV)
    98      98       --         0.987 au  fB            1.00     87 A               2
                        (      26.849 eV)
    99      99       --         1.027 au  fB            1.00     88 A               2
                        (      27.938 eV)
   100     100       --         1.057 au  fB            1.00     89 A               2
                        (      28.772 eV)
   101     101       --         1.085 au  fB            1.00     90 A               2
                        (      29.513 eV)
   102     102       --         1.099 au  fB            1.00     91 A               2
                        (      29.916 eV)
   103     103       --         1.138 au  fB            1.00     92 A               2
                        (      30.966 eV)
   104     104       --         1.147 au  fB            1.00     93 A               2
                        (      31.201 eV)
   105     105       --         1.153 au  fB            1.00     94 A               2
                        (      31.385 eV)
   106     106       --         1.174 au  fB            1.00     95 A               2
                        (      31.943 eV)
   107     107       --         1.209 au  fB            1.00     96 A               2
                        (      32.887 eV)
   108     108       --         1.216 au  fB            1.00     97 A               2
                        (      33.101 eV)
   109     109       --         1.247 au  fB            1.00     98 A               2
                        (      33.930 eV)
   110     110       --         1.255 au  fB            1.00     99 A               2
                        (      34.142 eV)
   111     111       --         1.269 au  fB            1.00    100 A               2
                        (      34.538 eV)
   112     112       --         1.297 au  fB            1.00    101 A               2
                        (      35.305 eV)
   113     113       --         1.306 au  fB            1.00    102 A               2
                        (      35.538 eV)
   114     114       --         1.319 au  fB            1.00    103 A               2
                        (      35.880 eV)
   115     115       --         1.330 au  fB            1.00    104 A               2
                        (      36.190 eV)
   116     116       --         1.372 au  fB            1.00    105 A               2
                        (      37.341 eV)
   117     117       --         1.413 au  fB            1.00    106 A               2
                        (      38.462 eV)
   118     118       --         1.417 au  fB            1.00    107 A               2
                        (      38.562 eV)
   119     119       --         1.447 au  fB            1.00    108 A               2
                        (      39.383 eV)
   120     120       --         1.456 au  fB            1.00    109 A               2
                        (      39.628 eV)
   121     121       --         1.464 au  fB            1.00    110 A               2
                        (      39.824 eV)
   122     122       --         1.535 au  fB            1.00    111 A               2
                        (      41.770 eV)
   123     123       --         1.578 au  fB            1.00    112 A               2
                        (      42.948 eV)
   124     124       --         1.623 au  fB            1.00    113 A               2
                        (      44.176 eV)
   125     125       --         1.640 au  fB            1.00    114 A               2
                        (      44.624 eV)
   126     126       --         1.665 au  fB            1.00    115 A               2
                        (      45.294 eV)
   127     127       --         1.703 au  fB            1.00    116 A               2
                        (      46.329 eV)
   128     128       --         1.708 au  fB            1.00    117 A               2
                        (      46.477 eV)
   129     129       --         1.736 au  fB            1.00    118 A               2
                        (      47.237 eV)
   130     130       --         1.770 au  fB            1.00    119 A               2
                        (      48.171 eV)
   131     131       --         1.800 au  fB            1.00    120 A               2
                        (      48.967 eV)
   132     132       --         1.844 au  fB            1.00    121 A               2
                        (      50.171 eV)
   133     133       --         1.872 au  fB            1.00    122 A               2
                        (      50.938 eV)
   134     134       --         1.896 au  fB            1.00    123 A               2
                        (      51.598 eV)
   135     135       --         1.914 au  fB            1.00    124 A               2
                        (      52.089 eV)
   136     136       --         1.929 au  fB            1.00    125 A               2
                        (      52.496 eV)
   137     137       --         1.959 au  fB            1.00    126 A               2
                        (      53.310 eV)
   138     138       --         1.987 au  fB            1.00    127 A               2
                        (      54.073 eV)
   139     139       --         1.995 au  fB            1.00    128 A               2
                        (      54.299 eV)
   140     140       --         2.022 au  fB            1.00    129 A               2
                        (      55.034 eV)
   141     141       --         2.068 au  fB            1.00    130 A               2
                        (      56.264 eV)
   142     142       --         2.120 au  fB            1.00    131 A               2
                        (      57.687 eV)
   143     143       --         2.145 au  fB            1.00    132 A               2
                        (      58.377 eV)
   144     144       --         2.180 au  fB            1.00    133 A               2
                        (      59.313 eV)
   145     145       --         2.198 au  fB            1.00    134 A               2
                        (      59.812 eV)
   146     146       --         2.227 au  fB            1.00    135 A               2
                        (      60.593 eV)
   147     147       --         2.272 au  fB            1.00    136 A               2
                        (      61.817 eV)
   148     148       --         2.322 au  fB            1.00    137 A               2
                        (      63.197 eV)
   149     149       --         2.367 au  fB            1.00    138 A               2
                        (      64.400 eV)
   150     150       --         2.407 au  fB            1.00    139 A               2
                        (      65.503 eV)
   151     151       --         2.420 au  fB            1.00    140 A               2
                        (      65.846 eV)
   152     152       --         2.490 au  fB            1.00    141 A               2
                        (      67.758 eV)
   153     153       --         2.508 au  fB            1.00    142 A               2
                        (      68.243 eV)
   154     154       --         2.556 au  fB            1.00    143 A               2
                        (      69.562 eV)
   155     155       --         2.589 au  fB            1.00    144 A               2
                        (      70.438 eV)
   156     156       --         2.611 au  fB            1.00    145 A               2
                        (      71.043 eV)
   157     157       --         2.655 au  fB            1.00    146 A               2
                        (      72.241 eV)
   158     158       --         2.707 au  fB            1.00    147 A               2
                        (      73.663 eV)
   159     159       --         2.722 au  fB            1.00    148 A               2
                        (      74.057 eV)
   160     160       --         2.730 au  fB            1.00    149 A               2
                        (      74.297 eV)
   161     161       --         2.763 au  fB            1.00    150 A               2
                        (      75.176 eV)
   162     162       --         2.827 au  fB            1.00    151 A               2
                        (      76.940 eV)
   163     163       --         2.851 au  fB            1.00    152 A               2
                        (      77.592 eV)
   164     164       --         2.925 au  fB            1.00    153 A               2
                        (      79.580 eV)
   165     165       --         2.982 au  fB            1.00    154 A               2
                        (      81.155 eV)
   166     166       --         2.989 au  fB            1.00    155 A               2
                        (      81.324 eV)
   167     167       --         3.004 au  fB            1.00    156 A               2
                        (      81.748 eV)
   168     168       --         3.043 au  fB            1.00    157 A               2
                        (      82.800 eV)
   169     169       --         3.077 au  fB            1.00    158 A               2
                        (      83.717 eV)
   170     170       --         3.115 au  fB            1.00    159 A               2
                        (      84.752 eV)
   171     171       --         3.125 au  fB            1.00    160 A               2
                        (      85.042 eV)
   172     172       --         3.186 au  fB            1.00    161 A               2
                        (      86.685 eV)
   173     173       --         3.208 au  fB            1.00    162 A               2
                        (      87.291 eV)
   174     174       --         3.238 au  fB            1.00    163 A               2
                        (      88.121 eV)
   175     175       --         3.244 au  fB            1.00    164 A               2
                        (      88.281 eV)
   176     176       --         3.266 au  fB            1.00    165 A               2
                        (      88.863 eV)
   177     177       --         3.302 au  fB            1.00    166 A               2
                        (      89.841 eV)
   178     178       --         3.366 au  fB            1.00    167 A               2
                        (      91.586 eV)
   179     179       --         3.391 au  fB            1.00    168 A               2
                        (      92.280 eV)
   180     180       --         3.408 au  fB            1.00    169 A               2
                        (      92.736 eV)
   181     181       --         3.419 au  fB            1.00    170 A               2
                        (      93.031 eV)
   182     182       --         3.438 au  fB            1.00    171 A               2
                        (      93.555 eV)
   183     183       --         3.478 au  fB            1.00    172 A               2
                        (      94.638 eV)
   184     184       --         3.516 au  fB            1.00    173 A               2
                        (      95.665 eV)
   185     185       --         3.535 au  fB            1.00    174 A               2
                        (      96.195 eV)
   186     186       --         3.545 au  fB            1.00    175 A               2
                        (      96.461 eV)
   187     187       --         3.556 au  fB            1.00    176 A               2
                        (      96.751 eV)
   188     188       --         3.569 au  fB            1.00    177 A               2
                        (      97.124 eV)
   189     189       --         3.582 au  fB            1.00    178 A               2
                        (      97.458 eV)
   190     190       --         3.627 au  fB            1.00    179 A               2
                        (      98.703 eV)
   191     191       --         3.645 au  fB            1.00    180 A               2
                        (      99.177 eV)
   192     192       --         3.660 au  fB            1.00    181 A               2
                        (      99.595 eV)
   193     193       --         3.696 au  fB            1.00    182 A               2
                        (     100.575 eV)
   194     194       --         3.703 au  fB            1.00    183 A               2
                        (     100.764 eV)
   195     195       --         3.724 au  fB            1.00    184 A               2
                        (     101.335 eV)
   196     196       --         3.740 au  fB            1.00    185 A               2
                        (     101.783 eV)
   197     197       --         3.784 au  fB            1.00    186 A               2
                        (     102.959 eV)
   198     198       --         3.817 au  fB            1.00    187 A               2
                        (     103.878 eV)
   199     199       --         3.850 au  fB            1.00    188 A               2
                        (     104.753 eV)
   200     200       --         3.905 au  fB            1.00    189 A               2
                        (     106.259 eV)
   201     201       --         3.916 au  fB            1.00    190 A               2
                        (     106.564 eV)
   202     202       --         3.925 au  fB            1.00    191 A               2
                        (     106.798 eV)
   203     203       --         3.990 au  fB            1.00    192 A               2
                        (     108.571 eV)
   204     204       --         4.004 au  fB            1.00    193 A               2
                        (     108.947 eV)
   205     205       --         4.021 au  fB            1.00    194 A               2
                        (     109.420 eV)
   206     206       --         4.074 au  fB            1.00    195 A               2
                        (     110.849 eV)
   207     207       --         4.091 au  fB            1.00    196 A               2
                        (     111.327 eV)
   208     208       --         4.137 au  fB            1.00    197 A               2
                        (     112.575 eV)
   209     209       --         4.207 au  fB            1.00    198 A               2
                        (     114.472 eV)
   210     210       --         4.238 au  fB            1.00    199 A               2
                        (     115.313 eV)
   211     211       --         4.293 au  fB            1.00    200 A               2
                        (     116.826 eV)
   212     212       --         4.301 au  fB            1.00    201 A               2
                        (     117.026 eV)
   213     213       --         4.376 au  fB            1.00    202 A               2
                        (     119.071 eV)
   214     214       --         4.400 au  fB            1.00    203 A               2
                        (     119.718 eV)
   215     215       --         4.412 au  fB            1.00    204 A               2
                        (     120.043 eV)
   216     216       --         4.450 au  fB            1.00    205 A               2
                        (     121.101 eV)
   217     217       --         4.479 au  fB            1.00    206 A               2
                        (     121.879 eV)
   218     218       --         4.568 au  fB            1.00    207 A               2
                        (     124.315 eV)
   219     219       --         4.625 au  fB            1.00    208 A               2
                        (     125.860 eV)
   220     220       --         4.672 au  fB            1.00    209 A               2
                        (     127.133 eV)
   221     221       --         4.743 au  fB            1.00    210 A               2
                        (     129.063 eV)
   222     222       --         4.802 au  fB            1.00    211 A               2
                        (     130.668 eV)
   223     223       --         4.841 au  fB            1.00    212 A               2
                        (     131.735 eV)
   224     224       --         4.860 au  fB            1.00    213 A               2
                        (     132.251 eV)
   225     225       --         4.907 au  fB            1.00    214 A               2
                        (     133.528 eV)
   226     226       --         4.934 au  fB            1.00    215 A               2
                        (     134.256 eV)
   227     227       --         5.000 au  fB            1.00    216 A               2
                        (     136.045 eV)
   228     228       --         5.011 au  fB            1.00    217 A               2
                        (     136.360 eV)
   229     229       --         5.061 au  fB            1.00    218 A               2
                        (     137.712 eV)
   230     230       --         5.110 au  fB            1.00    219 A               2
                        (     139.052 eV)
   231     231       --         5.162 au  fB            1.00    220 A               2
                        (     140.454 eV)
   232     232       --         5.191 au  fB            1.00    221 A               2
                        (     141.251 eV)
   233     233       --         5.227 au  fB            1.00    222 A               2
                        (     142.226 eV)
   234     234       --         5.266 au  fB            1.00    223 A               2
                        (     143.292 eV)
   235     235       --         5.313 au  fB            1.00    224 A               2
                        (     144.567 eV)
   236     236       --         5.361 au  fB            1.00    225 A               2
                        (     145.877 eV)
   237     237       --         5.427 au  fB            1.00    226 A               2
                        (     147.685 eV)
   238     238       --         5.436 au  fB            1.00    227 A               2
                        (     147.923 eV)
   239     239       --         5.477 au  fB            1.00    228 A               2
                        (     149.025 eV)
   240     240       --         5.533 au  fB            1.00    229 A               2
                        (     150.565 eV)
   241     241       --         5.561 au  fB            1.00    230 A               2
                        (     151.326 eV)
   242     242       --         5.667 au  fB            1.00    231 A               2
                        (     154.207 eV)
   243     243       --         5.805 au  fB            1.00    232 A               2
                        (     157.958 eV)
   244     244       --         5.879 au  fB            1.00    233 A               2
                        (     159.974 eV)
   245     245       --         6.077 au  fB            1.00    234 A               2
                        (     165.355 eV)
   246     246       --         6.144 au  fB            1.00    235 A               2
                        (     167.177 eV)
   247     247       --         6.204 au  fB            1.00    236 A               2
                        (     168.825 eV)
   248     248       --         6.274 au  fB            1.00    237 A               2
                        (     170.736 eV)
   249     249       --         6.287 au  fB            1.00    238 A               2
                        (     171.089 eV)
   250     250       --         6.322 au  fB            1.00    239 A               2
                        (     172.041 eV)
   251     251       --         6.361 au  fB            1.00    240 A               2
                        (     173.094 eV)
   252     252       --         6.430 au  fB            1.00    241 A               2
                        (     174.971 eV)
   253     253       --         6.476 au  fB            1.00    242 A               2
                        (     176.233 eV)
   254     254       --         6.525 au  fB            1.00    243 A               2
                        (     177.558 eV)
   255     255       --         6.581 au  fB            1.00    244 A               2
                        (     179.069 eV)
   256     256       --         6.602 au  fB            1.00    245 A               2
                        (     179.656 eV)
   257     257       --         6.705 au  fB            1.00    246 A               2
                        (     182.460 eV)
   258     258       --         6.772 au  fB            1.00    247 A               2
                        (     184.279 eV)
   259     259       --         6.817 au  fB            1.00    248 A               2
                        (     185.506 eV)
   260     260       --         6.843 au  fB            1.00    249 A               2
                        (     186.219 eV)
   261     261       --         6.977 au  fB            1.00    250 A               2
                        (     189.842 eV)
   262     262       --         7.093 au  fB            1.00    251 A               2
                        (     193.002 eV)
   263     263       --         7.192 au  fB            1.00    252 A               2
                        (     195.711 eV)
   264     264       --         7.264 au  fB            1.00    253 A               2
                        (     197.660 eV)
   265     265       --         7.382 au  fB            1.00    254 A               2
                        (     200.874 eV)
   266     266       --         7.396 au  fB            1.00    255 A               2
                        (     201.254 eV)
   267     267       --         7.739 au  fB            1.00    256 A               2
                        (     210.601 eV)
   268     268       --         8.433 au  fB            1.00    257 A               2
                        (     229.475 eV)
   269     269       --         8.752 au  fB            1.00    258 A               2
                        (     238.165 eV)
   270     270       --         8.856 au  fB            1.00    259 A               2
                        (     240.995 eV)
   271     271       --         9.001 au  fB            1.00    260 A               2
                        (     244.921 eV)
   272     272       --         9.037 au  fB            1.00    261 A               2
                        (     245.903 eV)
   273     273       --         9.609 au  fB            1.00    262 A               2
                        (     261.487 eV)
   274     274       --         9.946 au  fB            1.00    263 A               2
                        (     270.655 eV)
   275     275       --        10.406 au  fB            1.00    264 A               2
                        (     283.160 eV)
   276     276       --        15.637 au  fB            1.00    265 A               2
                        (     425.503 eV)
   277     277       --        15.922 au  fB            1.00    266 A               2
                        (     433.249 eV)
   278     278       --        51.475 au  fB            1.00    267 A               2
                        (    1400.712 eV)
   279     279       --        56.184 au  fB            1.00    268 A               2
                        (    1528.857 eV)
   280     280       --        59.221 au  fB            1.00    269 A               2
                        (    1611.480 eV)
   281     281       --        71.137 au  fB            1.00    270 A               2
                        (    1935.739 eV)
   282     282       --        71.698 au  fB            1.00    271 A               2
                        (    1951.002 eV)
   283     283       --        71.991 au  fB            1.00    272 A               2
                        (    1958.973 eV)
   284     284       --       127.845 au  fB            1.00    273 A               2
                        (    3478.835 eV)
   285     285       --       128.758 au  fB            1.00    274 A               2
                        (    3503.686 eV)



 ================================
 (Slater-type)  F U N C T I O N S  ***  (Basis and Fit)  ***
 ================================
  

 Atom Type    1  (H)
 ==============

 Valence Basis Sets:   5
 -----------------------
   1 S    0.690000
   1 S    0.920000
   1 S    1.580000
   2 P    1.250000
   3 D    2.500000

 Atom Type    2  (C)
 ==============

 Valence Basis Sets:  10
 -----------------------
   1 S    7.680000
   1 S    5.000000
   2 S    1.280000
   2 S    2.100000
   2 S    4.600000
   2 P    0.820000
   2 P    1.480000
   2 P    2.940000
   3 D    2.200000
   4 F    3.300000

 Atom Type    3  (H)
 ==============

 Valence Basis Sets:   5
 -----------------------
   1 S    0.690000
   1 S    0.920000
   1 S    1.580000
   2 P    1.250000
   3 D    2.500000

 Atom Type    4  (F)
 ==============

 Valence Basis Sets:  10
 -----------------------
   1 S   10.880000
   1 S    7.700000
   2 S    3.240000
   2 S    1.940000
   2 S    0.740000
   2 P    4.540000
   2 P    2.300000
   2 P    1.240000
   3 D    2.000000
   4 F    3.000000

 Atom Type    5  (N)
 ==============

 Valence Basis Sets:  10
 -----------------------
   1 S    8.740000
   1 S    5.900000
   2 S    5.150000
   2 S    2.500000
   2 S    1.500000
   2 P    3.680000
   2 P    1.880000
   2 P    1.000000
   3 D    2.200000
   4 F    3.300000

 Atom Type    6  (O)
 ==============

 Valence Basis Sets:  10
 -----------------------
   1 S    9.800000
   1 S    6.800000
   2 S    7.580000
   2 S    2.880000
   2 S    1.720000
   2 P    4.080000
   2 P    2.080000
   2 P    1.120000
   3 D    2.000000
   4 F    3.000000


 BAS: List of all Elementary Cartesian Basis Functions
 =====================================================

 The numbering in the list below (to the right of the function characteristics) is referred
 to in print-outs of MO eigenvectors and Mulliken populations in the BAS representation
 (as contrasted to the SFO representation).

 Notes:
 1. The functions are characterized by a polynomial prefactor (powers of x,y,z and r) and
    an exponential decay factor alpha.
 2. Since the basis sets are specific for an atom TYPE, the individual functions occur on
    all atoms of that type.
 3. The word 'Core' in the left margin signals that it is a Core Function (CF) : not a
    degree of freedom in the valence set, but only used to ensure orthogonalization of
    the other valence basis functions on the frozen Core Orbitals.


 (power of) X  Y  Z  R     Alpha  on Atom
            ==========     =====     ==========

 H                                    1
                                  ---------------------------------------------------------------------------
            0  0  0  0     0.690      1
            0  0  0  0     0.920      2
            0  0  0  0     1.580      3
            1  0  0  0     1.250      4
            0  1  0  0     1.250      5
            0  0  1  0     1.250      6
            2  0  0  0     2.500      7
            1  1  0  0     2.500      8
            1  0  1  0     2.500      9
            0  2  0  0     2.500     10
            0  1  1  0     2.500     11
            0  0  2  0     2.500     12

 C                                    2    3
                                  ---------------------------------------------------------------------------
            0  0  0  0     7.680     13   43
            0  0  0  0     5.000     14   44
            0  0  0  1     1.280     15   45
            0  0  0  1     2.100     16   46
            0  0  0  1     4.600     17   47
            1  0  0  0     0.820     18   48
            0  1  0  0     0.820     19   49
            0  0  1  0     0.820     20   50
            1  0  0  0     1.480     21   51
            0  1  0  0     1.480     22   52
            0  0  1  0     1.480     23   53
            1  0  0  0     2.940     24   54
            0  1  0  0     2.940     25   55
            0  0  1  0     2.940     26   56
            2  0  0  0     2.200     27   57
            1  1  0  0     2.200     28   58
            1  0  1  0     2.200     29   59
            0  2  0  0     2.200     30   60
            0  1  1  0     2.200     31   61
            0  0  2  0     2.200     32   62
            3  0  0  0     3.300     33   63
            2  1  0  0     3.300     34   64
            2  0  1  0     3.300     35   65
            1  2  0  0     3.300     36   66
            1  1  1  0     3.300     37   67
            1  0  2  0     3.300     38   68
            0  3  0  0     3.300     39   69
            0  2  1  0     3.300     40   70
            0  1  2  0     3.300     41   71
            0  0  3  0     3.300     42   72

 H                                    4    5    6    7    8    9
                                  ---------------------------------------------------------------------------
            0  0  0  0     0.690     73   85   97  109  121  133
            0  0  0  0     0.920     74   86   98  110  122  134
            0  0  0  0     1.580     75   87   99  111  123  135
            1  0  0  0     1.250     76   88  100  112  124  136
            0  1  0  0     1.250     77   89  101  113  125  137
            0  0  1  0     1.250     78   90  102  114  126  138
            2  0  0  0     2.500     79   91  103  115  127  139
            1  1  0  0     2.500     80   92  104  116  128  140
            1  0  1  0     2.500     81   93  105  117  129  141
            0  2  0  0     2.500     82   94  106  118  130  142
            0  1  1  0     2.500     83   95  107  119  131  143
            0  0  2  0     2.500     84   96  108  120  132  144

 F                                   10
                                  ---------------------------------------------------------------------------
            0  0  0  0    10.880    145
            0  0  0  0     7.700    146
            0  0  0  1     3.240    147
            0  0  0  1     1.940    148
            0  0  0  1     0.740    149
            1  0  0  0     4.540    150
            0  1  0  0     4.540    151
            0  0  1  0     4.540    152
            1  0  0  0     2.300    153
            0  1  0  0     2.300    154
            0  0  1  0     2.300    155
            1  0  0  0     1.240    156
            0  1  0  0     1.240    157
            0  0  1  0     1.240    158
            2  0  0  0     2.000    159
            1  1  0  0     2.000    160
            1  0  1  0     2.000    161
            0  2  0  0     2.000    162
            0  1  1  0     2.000    163
            0  0  2  0     2.000    164
            3  0  0  0     3.000    165
            2  1  0  0     3.000    166
            2  0  1  0     3.000    167
            1  2  0  0     3.000    168
            1  1  1  0     3.000    169
            1  0  2  0     3.000    170
            0  3  0  0     3.000    171
            0  2  1  0     3.000    172
            0  1  2  0     3.000    173
            0  0  3  0     3.000    174

 N                                   11   12   13
                                  ---------------------------------------------------------------------------
            0  0  0  0     8.740    175  205  235
            0  0  0  0     5.900    176  206  236
            0  0  0  1     5.150    177  207  237
            0  0  0  1     2.500    178  208  238
            0  0  0  1     1.500    179  209  239
            1  0  0  0     3.680    180  210  240
            0  1  0  0     3.680    181  211  241
            0  0  1  0     3.680    182  212  242
            1  0  0  0     1.880    183  213  243
            0  1  0  0     1.880    184  214  244
            0  0  1  0     1.880    185  215  245
            1  0  0  0     1.000    186  216  246
            0  1  0  0     1.000    187  217  247
            0  0  1  0     1.000    188  218  248
            2  0  0  0     2.200    189  219  249
            1  1  0  0     2.200    190  220  250
            1  0  1  0     2.200    191  221  251
            0  2  0  0     2.200    192  222  252
            0  1  1  0     2.200    193  223  253
            0  0  2  0     2.200    194  224  254
            3  0  0  0     3.300    195  225  255
            2  1  0  0     3.300    196  226  256
            2  0  1  0     3.300    197  227  257
            1  2  0  0     3.300    198  228  258
            1  1  1  0     3.300    199  229  259
            1  0  2  0     3.300    200  230  260
            0  3  0  0     3.300    201  231  261
            0  2  1  0     3.300    202  232  262
            0  1  2  0     3.300    203  233  263
            0  0  3  0     3.300    204  234  264

 O                                   14   15
                                  ---------------------------------------------------------------------------
            0  0  0  0     9.800    265  295
            0  0  0  0     6.800    266  296
            0  0  0  1     7.580    267  297
            0  0  0  1     2.880    268  298
            0  0  0  1     1.720    269  299
            1  0  0  0     4.080    270  300
            0  1  0  0     4.080    271  301
            0  0  1  0     4.080    272  302
            1  0  0  0     2.080    273  303
            0  1  0  0     2.080    274  304
            0  0  1  0     2.080    275  305
            1  0  0  0     1.120    276  306
            0  1  0  0     1.120    277  307
            0  0  1  0     1.120    278  308
            2  0  0  0     2.000    279  309
            1  1  0  0     2.000    280  310
            1  0  1  0     2.000    281  311
            0  2  0  0     2.000    282  312
            0  1  1  0     2.000    283  313
            0  0  2  0     2.000    284  314
            3  0  0  0     3.000    285  315
            2  1  0  0     3.000    286  316
            2  0  1  0     3.000    287  317
            1  2  0  0     3.000    288  318
            1  1  1  0     3.000    289  319
            1  0  2  0     3.000    290  320
            0  3  0  0     3.000    291  321
            0  2  1  0     3.000    292  322
            0  1  2  0     3.000    293  323
            0  0  3  0     3.000    294  324

 Total number of charge fitting functions (nprimf)      1023
 Total number of Cartesian basis functions (naos)        324
 Total number of Cartesian core functions  (ncos)          0

 ***************************************************************************************************



                                              ***********************
                                              *  T E C H N I C A L  *
                                              ***********************
  



 =============================================================
 P A R A L L E L I Z A T I O N  and  V E C T O R I Z A T I O N
 =============================================================
  
 Nr of parallel processes:                                1
 Maximum vector length in NumInt loops:                 128



 =====================
 S C F   U P D A T E S
 =====================
  
 Max. nr. of cycles:                               200
 Convergence criterion:                              0.0000010000
   secondary criterion:                              0.0010000000

 Mix parameter (when DIIS does not apply):           0.2000000000
 Mixed ADIIS+SDIIS will be used                  
    Max number of expansion vectors:                10
    Pure ADIIS when Max([F,P]) is above              0.1000000000
    Pure SDIIS when Max([F,P]) is below              0.0010000000
 Automatic ElectronSmearing (in case of problematic SCF convergence) disabled



 =================
 P R E C I S I O N  ***  (General: NumInt, NeglectFunctionTails, ...)  ***
 =================
  

 NumInt:           Target precision:                 4.0000000000
 -------           Initial precision:                4.0000000000
                   Min. precision (optimization):    4.0000000000

 Neglect Functions:          Basis functions:        0.1000000000E-05
 ------------------          Fit functions:          0.1000000000E-05



 ===========================
 L I N E A R   S C A L I N G
 ===========================
  

 Cut-off radii density fit:                        0.1000000000E-07
 Overlap cut-off criterion AO matrix elements:     0.1000000000E-05
 Cut-offs for Coulomb potential and fitted density:0.1000000000E-07
 Cut-off criterion for Coulomb multipole terms:    0.1000000000E-07
 Progressive Convergence parameter:                 0.000000000    
 ***************************************************************************************************



                                            ***************************
                                            *  C O M P U T A T I O N  *
                                            ***************************
  

 Number of elements of the density matrix on this node (used, total):     52650     52650



 ===========================================
 Numerical Integration : Fuzzy Cells (Becke)
 ===========================================
  
 Becke grid quality: NORMAL         
  
 Lebedev angular grid order:             min:  11 max:  23
 Nr. of radial points:                   min:  46 max:  55

 Total nr. of points:      97716
 Nr. of blocks:              764
 Block length:               128
 Nr. of dummy points:         76


 Test of Precision of the Numerical Integration Grid
 ===================================================

 Integral of the Total Core Density:                   0.00000000000000



 ========================
 Density Fitting (zlmFit)
 ========================
  
 ZlmFit Fit Quality: NORMAL         
  
 Max L-expansion:                        min:   6 max:   7
 Nr. of radial interpolation points:     min:  39 max:  54



 =====
 S C F  ***  ScaSCF  ***
 =====
  
 Initial density matrix is calculated as sum of fragments

 CYCLE    1
 SCF Error: norm([F,P])=      1.305719083439, max([F,P])=      0.664261430532
 orbitals (Q,E):
 ---------------
 A :24...43          ( 2.00    -0.2229)  ( 2.00    -0.2041)  ( 2.00    -0.1794)  ( 2.00    -0.1676)
                     ( 2.00    -0.1161)  ( 2.00    -0.1094)  ( 2.00    -0.0894)  ( 2.00    -0.0825)
                     ( 2.00    -0.0747)  ( 2.00     0.0137)  ( 0.00     0.0967)  ( 0.00     0.1037)
                     ( 0.00     0.1336)  ( 0.00     0.1520)  ( 0.00     0.1715)  ( 0.00     0.1887)
                     ( 0.00     0.2068)  ( 0.00     0.2233)  ( 0.00     0.2360)  ( 0.00     0.2813)

 CYCLE    2
   MIX coefficients:  0.8000  0.2000
 SCF Error: norm([F,P])=      0.838983898037, max([F,P])=      0.331260287541
 orbitals (Q,E):
 ---------------
 A :24...34          ( 2.00    -0.2139)  ( 2.00    -0.1851)  ( 2.00    -0.1631)  ( 2.00    -0.1472)
                     ( 2.00    -0.1002)  ( 2.00    -0.0827)  ( 2.00    -0.0725)  ( 2.00    -0.0623)
                     ( 2.00    -0.0426)  ( 2.00    -0.0027)  ( 0.00     0.0879)

 CYCLE    3
  SDIIS (wt  0.000):  0.0541  0.9459
 A-DIIS (wt  1.000):  0.0000  1.0000
  DIIS coefficients:  0.0000  1.0000
 SCF Error: norm([F,P])=      0.216682260069, max([F,P])=      0.032935335009
 orbitals (Q,E):
 ---------------
 A :24...34          ( 2.00    -0.2273)  ( 2.00    -0.1887)  ( 2.00    -0.1503)  ( 2.00    -0.1359)
                     ( 2.00    -0.1213)  ( 2.00    -0.1197)  ( 2.00    -0.0943)  ( 2.00    -0.0881)
                     ( 2.00    -0.0670)  ( 2.00    -0.0247)  ( 0.00     0.0363)

 CYCLE    4
  SDIIS (wt  0.000): -0.0484  0.7570  0.2915
 A-DIIS (wt  1.000):  0.0000  0.8329  0.1671
  DIIS coefficients:  0.0000  0.8329  0.1671
 SCF Error: norm([F,P])=      0.551485536381, max([F,P])=      0.201964588835
 orbitals (Q,E):
 ---------------
 A :24...34          ( 2.00    -0.2228)  ( 2.00    -0.1880)  ( 2.00    -0.1511)  ( 2.00    -0.1375)
                     ( 2.00    -0.1020)  ( 2.00    -0.0941)  ( 2.00    -0.0870)  ( 2.00    -0.0702)
                     ( 2.00    -0.0643)  ( 2.00    -0.0206)  ( 0.00     0.0570)

 CYCLE    5
  SDIIS (wt  0.631):  0.0826  0.3244 -0.0567  0.6496
 A-DIIS (wt  0.369):  0.0000  0.4015  0.0000  0.5985
  DIIS coefficients:  0.0521  0.3529 -0.0358  0.6308
 SCF Error: norm([F,P])=      0.182272600539, max([F,P])=      0.037569859972
 orbitals (Q,E):
 ---------------
 A :24...34          ( 2.00    -0.2183)  ( 2.00    -0.1846)  ( 2.00    -0.1572)  ( 2.00    -0.1423)
                     ( 2.00    -0.0993)  ( 2.00    -0.0899)  ( 2.00    -0.0840)  ( 2.00    -0.0687)
                     ( 2.00    -0.0612)  ( 2.00    -0.0052)  ( 0.00     0.0722)

 CYCLE    6
  SDIIS (wt  0.669):  0.0027  0.2286 -0.0166  0.3733  0.4120
 A-DIIS (wt  0.331):  0.0000  0.0593  0.0000  0.2618  0.6788
  DIIS coefficients:  0.0018  0.1727 -0.0111  0.3364  0.5002
 SCF Error: norm([F,P])=      0.093638666996, max([F,P])=      0.033731683348
 orbitals (Q,E):
 ---------------
 A :24...34          ( 2.00    -0.2172)  ( 2.00    -0.1844)  ( 2.00    -0.1547)  ( 2.00    -0.1402)
                     ( 2.00    -0.0972)  ( 2.00    -0.0822)  ( 2.00    -0.0802)  ( 2.00    -0.0658)
                     ( 2.00    -0.0526)  ( 2.00    -0.0089)  ( 0.00     0.0737)

 CYCLE    7
  SDIIS (wt  0.772): -0.0025  0.0951  0.0099  0.1542  0.3875  0.3558
 A-DIIS (wt  0.228):  0.0000  0.0000  0.0000  0.0000  0.3811  0.6189
  DIIS coefficients: -0.0019  0.0734  0.0076  0.1190  0.3861  0.4158
 SCF Error: norm([F,P])=      0.062296853247, max([F,P])=      0.023562506920
 orbitals (Q,E):
 ---------------
 A :24...34          ( 2.00    -0.2187)  ( 2.00    -0.1850)  ( 2.00    -0.1556)  ( 2.00    -0.1411)
                     ( 2.00    -0.0986)  ( 2.00    -0.0867)  ( 2.00    -0.0834)  ( 2.00    -0.0679)
                     ( 2.00    -0.0581)  ( 2.00    -0.0092)  ( 0.00     0.0706)

 CYCLE    8
  SDIIS (wt  0.985): -0.0011  0.0459  0.0028  0.0824  0.2685  0.2873  0.3143
 A-DIIS (wt  0.015):  0.0000  0.0000  0.0000  0.0000  0.0000  0.0000  1.0000
  DIIS coefficients: -0.0011  0.0452  0.0028  0.0812  0.2645  0.2831  0.3244
 SCF Error: norm([F,P])=      0.012197121330, max([F,P])=      0.002454300968
 orbitals (Q,E):
 ---------------
 A :24...34          ( 2.00    -0.2185)  ( 2.00    -0.1850)  ( 2.00    -0.1558)  ( 2.00    -0.1412)
                     ( 2.00    -0.0985)  ( 2.00    -0.0862)  ( 2.00    -0.0832)  ( 2.00    -0.0677)
                     ( 2.00    -0.0576)  ( 2.00    -0.0089)  ( 0.00     0.0712)

 CYCLE    9
  SDIIS (wt  0.994): -0.0006  0.0159 -0.0006  0.0315  0.1337  0.1488  0.3140  0.3574
 A-DIIS (wt  0.006):  0.0000  0.0000  0.0000  0.0000  0.0000  0.0000  0.1658  0.8342
  DIIS coefficients: -0.0006  0.0158 -0.0006  0.0313  0.1330  0.1480  0.3131  0.3601
 SCF Error: norm([F,P])=      0.004839744717, max([F,P])=      0.001560098704
 orbitals (Q,E):
 ---------------
 A :24...34          ( 2.00    -0.2185)  ( 2.00    -0.1850)  ( 2.00    -0.1558)  ( 2.00    -0.1412)
                     ( 2.00    -0.0985)  ( 2.00    -0.0863)  ( 2.00    -0.0832)  ( 2.00    -0.0678)
                     ( 2.00    -0.0576)  ( 2.00    -0.0088)  ( 0.00     0.0712)

 CYCLE   10
  SDIIS (wt  1.000): -0.0006  0.0050 -0.0007  0.0092  0.0488  0.0526  0.1569  0.2353  0.4936
  DIIS coefficients: -0.0006  0.0050 -0.0007  0.0092  0.0488  0.0526  0.1569  0.2353  0.4936
 SCF Error: norm([F,P])=      0.001045613337, max([F,P])=      0.000153038438
 orbitals (Q,E):
 ---------------
 A :24...34          ( 2.00    -0.2185)  ( 2.00    -0.1850)  ( 2.00    -0.1558)  ( 2.00    -0.1412)
                     ( 2.00    -0.0985)  ( 2.00    -0.0862)  ( 2.00    -0.0832)  ( 2.00    -0.0677)
                     ( 2.00    -0.0576)  ( 2.00    -0.0088)  ( 0.00     0.0712)

 CYCLE   11
  SDIIS (wt  1.000): -0.0005  0.0029 -0.0004  0.0048  0.0210  0.0220  0.0686  0.1106  0.2984  0.4726
  DIIS coefficients: -0.0005  0.0029 -0.0004  0.0048  0.0210  0.0220  0.0686  0.1106  0.2984  0.4726
 SCF Error: norm([F,P])=      0.000525263074, max([F,P])=      0.000259508479
 orbitals (Q,E):
 ---------------
 A :24...34          ( 2.00    -0.2185)  ( 2.00    -0.1850)  ( 2.00    -0.1558)  ( 2.00    -0.1412)
                     ( 2.00    -0.0985)  ( 2.00    -0.0862)  ( 2.00    -0.0832)  ( 2.00    -0.0677)
                     ( 2.00    -0.0576)  ( 2.00    -0.0088)  ( 0.00     0.0712)

 CYCLE   12
  SDIIS (wt  1.000):  0.0005 -0.0004  0.0016  0.0038  0.0055  0.0147  0.0242  0.0830  0.2253  0.6418
  DIIS coefficients:  0.0005 -0.0004  0.0016  0.0038  0.0055  0.0147  0.0242  0.0830  0.2253  0.6418
 SCF Error: norm([F,P])=      0.000153978666, max([F,P])=      0.000047967596
 orbitals (Q,E):
 ---------------
 A :24...34          ( 2.00    -0.2185)  ( 2.00    -0.1850)  ( 2.00    -0.1558)  ( 2.00    -0.1412)
                     ( 2.00    -0.0985)  ( 2.00    -0.0862)  ( 2.00    -0.0832)  ( 2.00    -0.0677)
                     ( 2.00    -0.0576)  ( 2.00    -0.0088)  ( 0.00     0.0712)

 CYCLE   13
  SDIIS (wt  1.000): -0.0001  0.0002  0.0004  0.0013  0.0027  0.0055  0.0260  0.0892  0.3125  0.5623
  DIIS coefficients: -0.0001  0.0002  0.0004  0.0013  0.0027  0.0055  0.0260  0.0892  0.3125  0.5623
 SCF Error: norm([F,P])=      0.000033287172, max([F,P])=      0.000003909571
 orbitals (Q,E):
 ---------------
 A :24...34          ( 2.00    -0.2185)  ( 2.00    -0.1850)  ( 2.00    -0.1558)  ( 2.00    -0.1412)
                     ( 2.00    -0.0985)  ( 2.00    -0.0862)  ( 2.00    -0.0832)  ( 2.00    -0.0677)
                     ( 2.00    -0.0576)  ( 2.00    -0.0088)  ( 0.00     0.0712)

 CYCLE   14
  SDIIS (wt  1.000): -0.0000 -0.0001  0.0002 -0.0003  0.0003  0.0047  0.0243  0.1109  0.3682  0.4918
  DIIS coefficients: -0.0000 -0.0001  0.0002 -0.0003  0.0003  0.0047  0.0243  0.1109  0.3682  0.4918
 SCF Error: norm([F,P])=      0.000018837561, max([F,P])=      0.000005789942
 orbitals (Q,E):
 ---------------
 A :24...34          ( 2.00    -0.2185)  ( 2.00    -0.1850)  ( 2.00    -0.1558)  ( 2.00    -0.1412)
                     ( 2.00    -0.0985)  ( 2.00    -0.0862)  ( 2.00    -0.0832)  ( 2.00    -0.0677)
                     ( 2.00    -0.0576)  ( 2.00    -0.0088)  ( 0.00     0.0712)

 CYCLE   15
  SDIIS (wt  1.000): -0.0000  0.0001 -0.0000  0.0004  0.0021  0.0085  0.0455  0.1437  0.2129  0.5867
  DIIS coefficients: -0.0000  0.0001 -0.0000  0.0004  0.0021  0.0085  0.0455  0.1437  0.2129  0.5867
 SCF Error: norm([F,P])=      0.000002930701, max([F,P])=      0.000000745614
 orbitals (Q,E):
 ---------------
 A :24...34          ( 2.00    -0.2185)  ( 2.00    -0.1850)  ( 2.00    -0.1558)  ( 2.00    -0.1412)
                     ( 2.00    -0.0985)  ( 2.00    -0.0862)  ( 2.00    -0.0832)  ( 2.00    -0.0677)
                     ( 2.00    -0.0576)  ( 2.00    -0.0088)  ( 0.00     0.0712)

 SCF CONVERGED

 CYCLE   16
 ***************************************************************************************************



                                                *******************
                                                *  R E S U L T S  *
                                                *******************
  
 *** Using FIT density in Focky
  SDIIS (wt  1.000):  0.0000  0.0000  0.0002  0.0008  0.0026  0.0176  0.0523  0.0829  0.3477  0.4958
  DIIS coefficients:  0.0000  0.0000  0.0002  0.0008  0.0026  0.0176  0.0523  0.0829  0.3477  0.4958
 SCF Error: norm([F,P])=      0.000000929923, max([F,P])=      0.000000184647

 Scaled ZORA Orbital Energies, per Irrep and Spin:
 =================================================
                        Occup              E (au)              E (eV)       Diff (eV) with prev. cycle
                        -----      --------------------        ------       --------------------------
 A
              24        2.000     -0.21847353221877E+00        -5.945               5.30E-07
              25        2.000     -0.18498161212379E+00        -5.034               1.48E-06
              26        2.000     -0.15577629823070E+00        -4.239               1.30E-06
              27        2.000     -0.14116491699314E+00        -3.841               1.38E-06
              28        2.000     -0.98458562934629E-01        -2.679               1.87E-07
              29        2.000     -0.86220446406859E-01        -2.346              -1.32E-06
              30        2.000     -0.83184238507108E-01        -2.264              -5.59E-07
              31        2.000     -0.67731305593461E-01        -1.843               4.08E-07
              32        2.000     -0.57604601797334E-01        -1.568              -1.15E-06
              33        2.000     -0.87938669135149E-02        -0.239              -1.56E-06
[...]
                                    1.24%    48 A               5.553  0.00     2 fB
                                    1.22%    52 A               6.837  0.00     2 fB
                                    1.17%    16 A             -15.519  2.00     2 fB
                                    1.17%    18 A             -14.278  2.00     2 fB
                                    1.11%    14 A             -21.268  2.00     2 fB
                                    1.10%    63 A              11.374  0.00     2 fB
                                    1.03%    45 A               3.920  0.00     2 fB
       0.05486       280 A          9.71%    28 A              -8.536  2.00     2 fB
                                    8.69%    44 A               3.603  0.00     2 fB
                                    8.11%    29 A              -8.277  2.00     2 fB
                                    7.54%    46 A               4.443  0.00     2 fB
                                    6.46%    34 A              -1.446  0.00     2 fB
                                    4.59%    27 A              -9.380  2.00     2 fB
                                    4.41%    24 A             -11.039  2.00     2 fB
                                    3.00%    26 A              -9.776  2.00     2 fB
                                    2.84%    50 A               5.965  0.00     2 fB
                                    2.72%    31 A              -6.792  2.00     2 fB
                                    2.64%    17 A             -14.454  2.00     2 fB
                                    2.31%    25 A              -9.975  2.00     2 fB
                                    2.17%    67 A              13.188  0.00     2 fB
                                    2.15%    40 A               1.729  0.00     2 fB
                                    2.01%    30 A              -7.618  2.00     2 fB
                                    2.00%     4 A              19.877  0.00     1 fA
                                    1.96%    36 A               0.171  0.00     2 fB
                                    1.81%    32 A              -6.306  2.00     2 fB
                                    1.61%    43 A               2.995  0.00     2 fB
                                    1.39%    21 A             -12.415  2.00     2 fB
                                    1.31%    48 A               5.553  0.00     2 fB
                                    1.29%    52 A               6.837  0.00     2 fB
                                    1.25%    14 A             -21.268  2.00     2 fB
                                    1.17%    63 A              11.374  0.00     2 fB
                                    1.13%    18 A             -14.278  2.00     2 fB
                                    1.09%    45 A               3.920  0.00     2 fB
                                    1.04%    22 A             -12.151  2.00     2 fB
      -0.05299         7 A         10.32%    28 A              -8.536  2.00     2 fB
                                   10.00%    37 A               0.343  0.00     2 fB
                                    9.45%    24 A             -11.039  2.00     2 fB
                                    9.45%    22 A             -12.151  2.00     2 fB
                                    9.05%    40 A               1.729  0.00     2 fB
                                    8.96%    30 A              -7.618  2.00     2 fB
                                    3.16%    20 A             -12.859  2.00     2 fB
                                    2.96%    31 A              -6.792  2.00     2 fB
                                    2.51%    27 A              -9.380  2.00     2 fB
                                    2.44%    73 A              16.902  0.00     2 fB
                                    2.42%    39 A               1.530  0.00     2 fB
                                    2.22%    71 A              15.265  0.00     2 fB
                                    2.07%    59 A               9.362  0.00     2 fB
                                    1.94%    46 A               4.443  0.00     2 fB
                                    1.83%    35 A              -0.317  0.00     2 fB
                                    1.81%    19 A             -13.735  2.00     2 fB
                                    1.72%    50 A               5.965  0.00     2 fB
                                    1.62%    63 A              11.374  0.00     2 fB
                                    1.23%    26 A              -9.776  2.00     2 fB
                                    1.13%     3 A              19.877  0.00     1 fA
                                    1.01%    60 A               9.731  0.00     2 fB
       0.05299       279 A         10.56%    37 A               0.343  0.00     2 fB
                                    9.58%    40 A               1.729  0.00     2 fB
                                    9.31%    24 A             -11.039  2.00     2 fB
                                    9.16%    28 A              -8.536  2.00     2 fB
                                    8.51%    22 A             -12.151  2.00     2 fB
                                    8.21%    30 A              -7.618  2.00     2 fB
                                    2.90%    31 A              -6.792  2.00     2 fB
                                    2.75%    20 A             -12.859  2.00     2 fB
                                    2.57%    73 A              16.902  0.00     2 fB
                                    2.52%    39 A               1.530  0.00     2 fB
                                    2.34%    71 A              15.265  0.00     2 fB
                                    2.34%     3 A              19.877  0.00     1 fA
                                    2.19%    59 A               9.362  0.00     2 fB
                                    2.08%    27 A              -9.380  2.00     2 fB
                                    2.03%    46 A               4.443  0.00     2 fB
                                    1.85%    35 A              -0.317  0.00     2 fB
                                    1.84%    50 A               5.965  0.00     2 fB
                                    1.71%    63 A              11.374  0.00     2 fB
                                    1.71%    19 A             -13.735  2.00     2 fB
                                    1.07%    60 A               9.731  0.00     2 fB
      -0.05140         8 A         15.96%    26 A              -9.776  2.00     2 fB
                                   10.15%    46 A               4.443  0.00     2 fB
                                    8.73%    28 A              -8.536  2.00     2 fB
                                    7.05%    24 A             -11.039  2.00     2 fB
                                    4.70%    40 A               1.729  0.00     2 fB
                                    4.22%    41 A               2.047  0.00     2 fB
                                    3.53%    16 A             -15.519  2.00     2 fB
                                    3.14%    39 A               1.530  0.00     2 fB
                                    2.63%    32 A              -6.306  2.00     2 fB
                                    2.44%    25 A              -9.975  2.00     2 fB
                                    2.21%    38 A               0.573  0.00     2 fB
                                    2.12%     4 A              19.877  0.00     1 fA
                                    2.09%    30 A              -7.618  2.00     2 fB
                                    2.03%    19 A             -13.735  2.00     2 fB
                                    2.03%    31 A              -6.792  2.00     2 fB
                                    1.95%    63 A              11.374  0.00     2 fB
                                    1.56%    45 A               3.920  0.00     2 fB
                                    1.47%    22 A             -12.151  2.00     2 fB
                                    1.38%    43 A               2.995  0.00     2 fB
                                    1.15%    34 A              -1.446  0.00     2 fB
                                    1.11%    70 A              14.854  0.00     2 fB
                                    1.07%    27 A              -9.380  2.00     2 fB
                                    1.04%    55 A               7.848  0.00     2 fB
                                    1.01%    37 A               0.343  0.00     2 fB
       0.05140       278 A         14.76%    26 A              -9.776  2.00     2 fB
                                   10.69%    46 A               4.443  0.00     2 fB
                                    7.45%    28 A              -8.536  2.00     2 fB
                                    5.59%    24 A             -11.039  2.00     2 fB
                                    5.08%     4 A              19.877  0.00     1 fA
                                    4.95%    40 A               1.729  0.00     2 fB
                                    4.45%    41 A               2.047  0.00     2 fB
                                    3.31%    39 A               1.530  0.00     2 fB
                                    2.81%    25 A              -9.975  2.00     2 fB
                                    2.66%    32 A              -6.306  2.00     2 fB
                                    2.32%    38 A               0.573  0.00     2 fB
                                    2.22%    31 A              -6.792  2.00     2 fB
                                    2.10%    16 A             -15.519  2.00     2 fB
                                    2.09%    30 A              -7.618  2.00     2 fB
                                    2.05%    63 A              11.374  0.00     2 fB
                                    1.64%    45 A               3.920  0.00     2 fB
                                    1.63%    27 A              -9.380  2.00     2 fB
                                    1.45%    43 A               2.995  0.00     2 fB
                                    1.42%    19 A             -13.735  2.00     2 fB
                                    1.39%    18 A             -14.278  2.00     2 fB
                                    1.35%     5 A              19.877  0.00     1 fA
                                    1.21%    20 A             -12.859  2.00     2 fB
                                    1.21%    34 A              -1.446  0.00     2 fB
                                    1.17%    70 A              14.854  0.00     2 fB
                                    1.09%    55 A               7.848  0.00     2 fB
                                    1.06%    37 A               0.343  0.00     2 fB
                                    1.04%    64 A              11.800  0.00     2 fB
 Mulliken charges used for AMS results%charges...


    =====================
     CALCULATION RESULTS
    =====================

Energy (hartree)            -0.07122934


--------------
Atomic charges
--------------
  Index   Atom    Charge
      1      H   -0.4303
      2      C    0.6221
      3      H   -0.1719
      4      F   -0.5379
      5      C    0.5769
      6      H   -0.1586
      7      N    0.5408
      8      O   -0.5252
      9      O   -0.4953
     10      N   -0.1524
     11      H   -0.0078
     12      H   -0.0345
     13      N   -0.1125
     14      H   -0.0713
     15      H   -0.0421


Dipole moment vector    (Debye):    -4.77850317    1.06536822   -4.02482798
              magnitude (Debye):     6.33784997


-----------------------
Molecular orbitals info
-----------------------
n orbitals:              285
n spin:                    1

Note: only printing virtual orbitals with
      energy smaller than HOMO + 100. eV

HOMO (eV):              -0.2393
LUMO (eV):               1.9374
HOMO-LUMO gap (eV):      2.1767

   Index   Energy (eV)    Occupation
     181       99.4859         0.000       
     180       98.7335         0.000       
     179       98.0792         0.000       
     178       97.7090         0.000       
     177       96.7963         0.000       
     176       96.2654         0.000       
     175       95.6249         0.000       
     174       95.3265         0.000       
     173       94.4724         0.000       
     172       92.9790         0.000       
     171       92.1974         0.000       
     170       91.6820         0.000       
     169       91.1983         0.000       
     168       90.2030         0.000       
     167       89.0957         0.000       
     166       88.7404         0.000       
     165       87.7375         0.000       
     164       87.0687         0.000       
     163       86.3191         0.000       
     162       85.9794         0.000       
     161       85.3230         0.000       
     160       84.1818         0.000       
     159       83.3908         0.000       
     158       82.2877         0.000       
     157       81.2336         0.000       
     156       80.2001         0.000       
     155       79.5763         0.000       
     154       78.6712         0.000       
     153       78.0933         0.000       
     152       76.9777         0.000       
     151       76.4092         0.000       
     150       75.4804         0.000       
     149       74.7289         0.000       
     148       73.5234         0.000       
     147       72.9458         0.000       
     146       72.0476         0.000       
     145       70.7097         0.000       
     144       69.7047         0.000       
     143       69.0504         0.000       
     142       68.0906         0.000       
     141       66.7247         0.000       
     140       65.7475         0.000       
     139       65.3771         0.000       
     138       64.8034         0.000       
     137       63.3601         0.000       
     136       62.7347         0.000       
     135       61.2694         0.000       
     134       60.2661         0.000       
     133       59.4306         0.000       
     132       59.0338         0.000       
     131       58.8535         0.000       
     130       57.6095         0.000       
     129       57.5641         0.000       
     128       57.2102         0.000       
     127       56.5068         0.000       
     126       55.1588         0.000       
     125       54.6838         0.000       
     124       54.3397         0.000       
     123       53.1505         0.000       
     122       52.0482         0.000       
     121       51.3447         0.000       
     120       51.1814         0.000       
     119       50.7950         0.000       
     118       50.0263         0.000       
     117       48.6782         0.000       
     116       48.0942         0.000       
     115       47.0227         0.000       
     114       45.1808         0.000       
     113       45.0238         0.000       
     112       44.3566         0.000       
     111       43.8004         0.000       
     110       43.4897         0.000       
     109       42.5554         0.000       
     108       41.3004         0.000       
     107       40.9407         0.000       
     106       40.3220         0.000       
     105       40.1341         0.000       
     104       39.8879         0.000       
     103       39.4635         0.000       
     102       38.7915         0.000       
     101       38.4276         0.000       
     100       37.9934         0.000       
      99       37.9152         0.000       
      98       37.0916         0.000       
      97       36.8368         0.000       
      96       35.7222         0.000       
      95       35.4530         0.000       
      94       35.2400         0.000       
      93       34.3937         0.000       
      92       34.0166         0.000       
      91       32.3214         0.000       
      90       31.8768         0.000       
      89       30.9444         0.000       
      88       29.8638         0.000       
      87       28.6521         0.000       
      86       28.3737         0.000       
      85       27.8635         0.000       
      84       27.3243         0.000       
      83       26.9567         0.000       
      82       26.1727         0.000       
      81       25.7212         0.000       
      80       25.3241         0.000       
      79       24.3126         0.000       
      78       24.0818         0.000       
      77       23.0701         0.000       
      76       22.5230         0.000       
      75       21.4005         0.000       
      74       20.7735         0.000       
      73       19.6954         0.000       
      72       19.5177         0.000       
      71       19.2497         0.000       
      70       18.0054         0.000       
      69       17.5352         0.000       
      68       17.4017         0.000       
      67       16.7577         0.000       
      66       16.4941         0.000       
      65       16.2826         0.000       
      64       15.7257         0.000       
      63       15.1669         0.000       
      62       14.5437         0.000       
      61       14.3391         0.000       
      60       13.9869         0.000       
      59       13.7349         0.000       
      58       13.1767         0.000       
      57       12.9929         0.000       
      56       12.4746         0.000       
      55       12.0028         0.000       
      54       11.4844         0.000       
      53       11.1805         0.000       
      52       10.7699         0.000       
      51       10.6215         0.000       
      50        9.9215         0.000       
      49        9.4704         0.000       
      48        9.3401         0.000       
      47        9.1503         0.000       
      46        8.3576         0.000       
      45        8.1624         0.000       
      44        7.7060         0.000       
      43        7.1994         0.000       
      42        6.4734         0.000       
      41        6.0754         0.000       
      40        5.4739         0.000       
      39        5.2175         0.000       
      38        4.6252         0.000       
      37        4.2081         0.000       
      36        3.9909         0.000       
      35        3.0677         0.000       
      34        1.9374         0.000 < LUMO
      33       -0.2393         2.000 < HOMO
      32       -1.5675         2.000       
      31       -1.8431         2.000       
      30       -2.2636         2.000       
      29       -2.3462         2.000       
      28       -2.6792         2.000       
      27       -3.8413         2.000       
      26       -4.2389         2.000       
      25       -5.0336         2.000       
      24       -5.9450         2.000       
      23       -6.5955         2.000       
      22       -7.1149         2.000       
      21       -7.3222         2.000       
      20       -7.7427         2.000       
      19       -8.0768         2.000       
      18       -8.4572         2.000       
      17       -8.9834         2.000       
      16      -10.1395         2.000       
      15      -12.0328         2.000       
      14      -15.3629         2.000       
      13      -17.0401         2.000       
      12      -19.1877         2.000       
      11      -20.7372         2.000       
      10      -23.7441         2.000       
       9      -25.2784         2.000       
       8     -267.6274         2.000       
       7     -268.4875         2.000       
       6     -377.0150         2.000       
       5     -377.4637         2.000       
       4     -382.4774         2.000       
       3     -506.8873         2.000       
       2     -506.9267         2.000       
       1     -655.8126         2.000       

AMS application finished. Exiting.
NORMAL TERMINATION
     Total cpu time:      88.71
  Total system time:       0.37
 Total elapsed time:      89.34
NORMAL TERMINATION
