22
Coordinates from ORCA-job ts_scan Relaxed Surface Scan Step 1 E -73.670262189514
  C      -0.344153      1.826069     -0.694956
  C      -0.384424      0.532388     -0.385271
  N      -1.334285     -0.096060      0.410682
  C      -2.270299      0.757205      1.095187
  C      -1.943307     -1.290454     -0.139038
  O       0.575039     -0.307528     -0.864198
  C       1.351367     -1.002399      0.091247
  C       2.795503     -0.632831      0.013253
  C       3.322253      0.232903     -0.833848
  H      -1.148404      2.496118     -0.440554
  H       0.510842      2.216126     -1.223063
  H      -2.990703      1.225528      0.413340
  H      -1.735925      1.540399      1.627491
  H      -2.824937      0.163275      1.819241
  H      -2.738405     -1.045448     -0.852803
  H      -2.371551     -1.883841      0.666886
  H      -1.199565     -1.888892     -0.654006
  H       0.968191     -0.810170      1.094227
  H       1.243796     -2.074907     -0.091873
  H       3.429299     -1.149152      0.727216
  H       4.382792      0.442340     -0.825729
  H       2.706875      0.749332     -1.557549
>
22
Coordinates from ORCA-job ts_scan Relaxed Surface Scan Step 2 E -73.670271529594
  C      -0.342672      1.785384     -0.793144
  C      -0.375666      0.502277     -0.442056
  N      -1.299157     -0.093436      0.409520
  C      -2.188071      0.790315      1.117951
  C      -1.955147     -1.284385     -0.091529
  O       0.554458     -0.360727     -0.939272
  C       1.330324     -1.085231     -0.005473
  C       2.748510     -0.620654      0.044980
  C       3.274643      0.330273     -0.705464
  H      -1.133591      2.466276     -0.526286
  H       0.489350      2.155876     -1.369520
  H      -2.934202      1.253972      0.461004
  H      -1.616484      1.576899      1.604407
  H      -2.715400      0.222159      1.882061
  H      -2.767196     -1.036123     -0.784870
  H      -2.370884     -1.847669      0.742097
  H      -1.244313     -1.914409     -0.615471
  H       0.878867     -1.019698      0.985196
  H       1.306981     -2.136654     -0.301933
  H       3.365197     -1.144297      0.768689
  H       4.316212      0.602790     -0.607688
  H       2.678239      0.857061     -1.437317
>
22
Coordinates from ORCA-job ts_scan Relaxed Surface Scan Step 3 E -73.670310857932
  C      -0.358220      1.734902     -0.929206
  C      -0.364980      0.469045     -0.519886
  N      -1.242780     -0.088609      0.404141
  C      -2.069199      0.829364      1.144295
  C      -1.955177     -1.272234     -0.033668
  O       0.536155     -0.413887     -1.036055
  C       1.308474     -1.173874     -0.128156
  C       2.679710     -0.621627      0.084587
  C       3.189298      0.435421     -0.521209
  H      -1.137002      2.423637     -0.647319
  H       0.434389      2.082772     -1.571434
  H      -2.852562      1.285046      0.526253
  H      -1.454318      1.620392      1.566098
  H      -2.550726      0.292047      1.959387
  H      -2.797200     -1.017111     -0.687785
  H      -2.339077     -1.806851      0.833557
  H      -1.290857     -1.932716     -0.581189
  H       0.790743     -1.254414      0.828278
  H       1.385380     -2.179764     -0.545522
  H       3.276670     -1.173834      0.803743
  H       4.196872      0.765075     -0.309351
  H       2.614403      0.997222     -1.243678
>
22
Coordinates from ORCA-job ts_scan Relaxed Surface Scan Step 4 E -73.670321051051
  C      -0.366185      1.685150     -1.043756
  C      -0.352964      0.435054     -0.589289
  N      -1.186408     -0.087347      0.394871
  C      -1.950252      0.861780      1.162628
  C      -1.951849     -1.257080      0.012247
  O       0.520375     -0.465992     -1.122377
  C       1.297559     -1.244048     -0.234407
  C       2.605197     -0.617968      0.125322
  C       3.076872      0.517361     -0.357004
  H      -1.128634      2.385337     -0.745821
  H       0.389883      2.007243     -1.741306
  H      -2.760970      1.319892      0.582857
  H      -1.296610      1.648739      1.530114
  H      -2.392055      0.350707      2.016296
  H      -2.824163     -0.986732     -0.594472
  H      -2.297444     -1.774848      0.905589
  H      -1.337146     -1.938523     -0.567067
  H       0.735058     -1.456960      0.675116
  H       1.476725     -2.192854     -0.742279
  H       3.187490     -1.183269      0.846382
  H       4.039325      0.896480     -0.042565
  H       2.516191      1.097880     -1.075197
>
22
Coordinates from ORCA-job ts_scan Relaxed Surface Scan Step 5 E -73.670238691580
  C      -0.358229      1.646157     -1.117886
  C      -0.340952      0.405520     -0.639509
  N      -1.142417     -0.089641      0.384350
  C      -1.854785      0.882810      1.172214
  C      -1.948562     -1.244566      0.042194
  O       0.506246     -0.512472     -1.186264
  C       1.293716     -1.292085     -0.308821
  C       2.537790     -0.609827      0.156637
  C       2.965295      0.574130     -0.243275
  H      -1.102077      2.360085     -0.805634
  H       0.372109      1.945628     -1.852082
  H      -2.680424      1.350603      0.621952
  H      -1.170849      1.660304      1.502843
  H      -2.269946      0.389823      2.049601
  H      -2.841823     -0.957615     -0.525233
  H      -2.263848     -1.752690      0.952246
  H      -1.375187     -1.939878     -0.562647
  H       0.708679     -1.602052      0.557602
  H       1.556533     -2.189684     -0.869592
  H       3.110944     -1.174180      0.885780
  H       3.883354      0.991550      0.146740
  H       2.414430      1.158079     -0.965335
>
22
Coordinates from ORCA-job ts_scan Relaxed Surface Scan Step 6 E -73.669956737398
  C      -0.332595      1.621869     -1.147042
  C      -0.330574      0.382454     -0.666562
  N      -1.117098     -0.095265      0.376296
  C      -1.793794      0.891543      1.177442
  C      -1.949730     -1.237772      0.057068
  O       0.491867     -0.551105     -1.225436
  C       1.292705     -1.322206     -0.352025
  C       2.483039     -0.594363      0.179194
  C       2.879075      0.609689     -0.192754
  H      -1.056670      2.350721     -0.822698
  H       0.385816      1.904785     -1.899204
  H      -2.622806      1.373542      0.644738
  H      -1.088210      1.656724      1.490940
  H      -2.198174      0.407984      2.065043
  H      -2.853773     -0.937224     -0.485743
  H      -2.247755     -1.741183      0.975567
  H      -1.403622     -1.941234     -0.563419
  H       0.699827     -1.697030      0.483051
  H       1.617203     -2.181104     -0.939917
  H       3.042149     -1.138559      0.934029
  H       3.758661      1.060705      0.245909
  H       2.344458      1.177029     -0.938595
>
22
Coordinates from ORCA-job ts_scan Relaxed Surface Scan Step 7 E -73.669385807828
  C      -0.297454      1.606244     -1.150268
  C      -0.321268      0.363747     -0.679801
  N      -1.102501     -0.102746      0.371247
  C      -1.753654      0.892944      1.182189
  C      -1.953680     -1.234528      0.063682
  O       0.477547     -0.583662     -1.250443
  C       1.292525     -1.343170     -0.378746
  C       2.435743     -0.574723      0.197288
  C       2.812744      0.633961     -0.180047
  H      -1.001299      2.349708     -0.814400
  H       0.415618      1.876833     -1.911624
  H      -2.579971      1.390597      0.659733
  H      -1.031593      1.644991      1.490033
  H      -2.156568      0.413847      2.072847
  H      -2.862508     -0.922459     -0.464425
  H      -2.243316     -1.735806      0.986036
  H      -1.425520     -1.943116     -0.566406
  H       0.698593     -1.765617      0.432705
  H       1.664988     -2.170788     -0.982482
  H       2.971571     -1.085594      0.991021
  H       3.655849      1.119418      0.292565
  H       2.304153      1.169919     -0.964819
>
22
Coordinates from ORCA-job ts_scan Relaxed Surface Scan Step 8 E -73.668463610881
  C      -0.259364      1.593119     -1.145216
  C      -0.312489      0.346579     -0.689480
  N      -1.090259     -0.111018      0.367200
  C      -1.718130      0.891322      1.187906
  C      -1.957798     -1.232465      0.068461
  O       0.462858     -0.613339     -1.272217
  C       1.292780     -1.360778     -0.402078
  C       2.385628     -0.552181      0.216249
  C       2.753332      0.653296     -0.180648
  H      -0.942459      2.350243     -0.796857
  H       0.448996      1.853640     -1.913919
  H      -2.539729      1.405693      0.674216
  H      -0.980855      1.629349      1.493805
  H      -2.122261      0.414747      2.079328
  H      -2.870167     -0.909389     -0.446731
  H      -2.240642     -1.732780      0.993443
  H      -1.445543     -1.944895     -0.570333
  H       0.700966     -1.829386      0.385356
  H       1.711531     -2.155023     -1.019770
  H       2.883611     -1.020457      1.059010
  H       3.554453      1.176693      0.323768
  H       2.285540      1.147031     -1.015613
>
22
Coordinates from ORCA-job ts_scan Relaxed Surface Scan Step 9 E -73.667150558780
  C      -0.220389      1.580675     -1.139051
  C      -0.304513      0.330212     -0.700323
  N      -1.076779     -0.119254      0.362961
  C      -1.680247      0.888640      1.194764
  C      -1.959881     -1.231042      0.074876
  O       0.447025     -0.641031     -1.295663
  C       1.293338     -1.376957     -0.427966
  C       2.326237     -0.527628      0.238744
  C       2.694617      0.668908     -0.184367
  H      -0.881585      2.350765     -0.776696
  H       0.482414      1.831993     -1.915264
  H      -2.497431      1.419851      0.691257
  H      -0.927718      1.612298      1.498069
  H      -2.084364      0.413924      2.087139
  H      -2.877186     -0.897739     -0.424738
  H      -2.232892     -1.731411      1.002783
  H      -1.464523     -1.946103     -0.574185
  H       0.706459     -1.897718      0.329902
  H       1.762006     -2.129638     -1.061187
  H       2.764522     -0.943650      1.139559
  H       3.442004      1.236120      0.354266
  H       2.288884      1.108786     -1.078998
>
22
Coordinates from ORCA-job ts_scan Relaxed Surface Scan Step 10 E -73.665411379371
  C      -0.178858      1.569205     -1.129081
  C      -0.297745      0.315223     -0.709854
  N      -1.065220     -0.126524      0.359223
  C      -1.646899      0.886157      1.200361
  C      -1.960769     -1.231037      0.082682
  O       0.429746     -0.666897     -1.316813
  C       1.295038     -1.390860     -0.452881
  C       2.267429     -0.504733      0.256909
  C       2.639351      0.681932     -0.190764
  H      -0.817182      2.351954     -0.752630
  H       0.518482      1.811586     -1.912326
  H      -2.458673      1.433096      0.705023
  H      -0.880781      1.596106      1.502326
  H      -2.052455      0.413221      2.092964
  H      -2.882596     -0.890533     -0.403441
  H      -2.224335     -1.730135      1.013983
  H      -1.479692     -1.948866     -0.573925
  H       0.717669     -1.960276      0.276838
  H       1.808399     -2.100399     -1.100573
  H       2.637055     -0.867838      1.209380
  H       3.328770      1.293264      0.376396
  H       2.303265      1.066356     -1.137916
>
22
Coordinates from ORCA-job ts_scan Relaxed Surface Scan Step 11 E -73.663199657378
  C      -0.135984      1.557672     -1.117994
  C      -0.292300      0.301291     -0.718973
  N      -1.055067     -0.132531      0.355621
  C      -1.616433      0.884589      1.204907
  C      -1.960726     -1.231632      0.091632
  O       0.412272     -0.690720     -1.335716
  C       1.298185     -1.402951     -0.476705
  C       2.210680     -0.484713      0.271900
  C       2.584991      0.693536     -0.196275
  H      -0.750681      2.352982     -0.728257
  H       0.555619      1.790052     -1.908571
  H      -2.422497      1.446151      0.716743
  H      -0.837862      1.581457      1.505757
  H      -2.023777      0.413555      2.097638
  H      -2.887934     -0.885867     -0.380136
  H      -2.212878     -1.730283      1.026312
  H      -1.492950     -1.950963     -0.572821
  H       0.733920     -2.018171      0.225568
  H       1.851338     -2.068146     -1.138026
  H       2.505875     -0.796597      1.267006
  H       3.212862      1.348855      0.392983
  H       2.323346      1.022436     -1.186712
>
22
Coordinates from ORCA-job ts_scan Relaxed Surface Scan Step 12 E -73.660440837036
  C      -0.092364      1.545320     -1.107275
  C      -0.288282      0.288097     -0.728327
  N      -1.046112     -0.136685      0.352095
  C      -1.588785      0.885442      1.207273
  C      -1.959405     -1.232795      0.103247
  O       0.393844     -0.713437     -1.352964
  C       1.303138     -1.413679     -0.500892
  C       2.157100     -0.469139      0.283238
  C       2.529933      0.704806     -0.197826
  H      -0.682474      2.353209     -0.705065
  H       0.592037      1.766604     -1.906512
  H      -2.388231      1.460615      0.724245
  H      -0.798771      1.569751      1.507427
  H      -1.999132      0.417314      2.100065
  H      -2.892445     -0.884677     -0.354846
  H      -2.199051     -1.729417      1.042258
  H      -1.503493     -1.954083     -0.567191
  H       0.756059     -2.073106      0.174312
  H       1.891387     -2.032473     -1.176304
  H       2.377156     -0.736763      1.309724
  H       3.094862      1.400325      0.408932
  H       2.343028      0.984772     -1.219732
>
22
Coordinates from ORCA-job ts_scan Relaxed Surface Scan Step 13 E -73.657059532493
  C      -0.048781      1.531807     -1.100536
  C      -0.285873      0.275612     -0.740286
  N      -1.036928     -0.138036      0.347607
  C      -1.560960      0.890252      1.206821
  C      -1.955133     -1.234380      0.119643
  O       0.373808     -0.735423     -1.370814
  C       1.309827     -1.423599     -0.528262
  C       2.103275     -0.459546      0.293481
  C       2.470392      0.715609     -0.190818
  H      -0.613043      2.352601     -0.686986
  H       0.625741      1.740133     -1.910944
  H      -2.354091      1.477508      0.728154
  H      -0.759979      1.562917      1.504574
  H      -1.973503      0.426638      2.100844
  H      -2.896091     -0.887725     -0.322776
  H      -2.177957     -1.727132      1.064786
  H      -1.511094     -1.958090     -0.555984
  H       0.784336     -2.129493      0.116350
  H       1.931150     -1.989865     -1.219478
  H       2.244830     -0.691977      1.341712
  H       2.968456      1.446463      0.432848
  H       2.361616      0.955727     -1.234055
>
22
Coordinates from ORCA-job ts_scan Relaxed Surface Scan Step 14 E -73.653006688199
  C      -0.004310      1.517669     -1.094484
  C      -0.285218      0.264209     -0.752762
  N      -1.029775     -0.136556      0.342420
  C      -1.536662      0.898609      1.203490
  C      -1.949068     -1.236586      0.139399
  O       0.352301     -0.756213     -1.386999
  C       1.318315     -1.431945     -0.556263
  C       2.053180     -0.455585      0.301996
  C       2.409231      0.725343     -0.179586
  H      -0.541433      2.351727     -0.670949
  H       0.657671      1.711321     -1.918259
  H      -2.322512      1.497129      0.727062
  H      -0.725613      1.560028      1.499558
  H      -1.952752      0.440561      2.098594
  H      -2.900068     -0.895177     -0.284845
  H      -2.150516     -1.725197      1.091458
  H      -1.516362     -1.961859     -0.541707
  H       0.818413     -2.183847      0.055621
  H       1.968449     -1.941951     -1.264193
  H       2.117688     -0.661660      1.362874
  H       2.840716      1.485751      0.458261
  H       2.378321      0.934228     -1.234804
>
22
Coordinates from ORCA-job ts_scan Relaxed Surface Scan Step 15 E -73.648260358742
  C       0.041729      1.502242     -1.088163
  C      -0.286763      0.253433     -0.765344
  N      -1.025503     -0.132022      0.336888
  C      -1.517270      0.911122      1.196951
  C      -1.941556     -1.239501      0.163495
  O       0.327457     -0.776748     -1.401243
  C       1.329429     -1.438554     -0.586381
  C       2.007006     -0.457338      0.308305
  C       2.347486      0.733652     -0.164716
  H      -0.466594      2.349755     -0.655357
  H       0.687277      1.680518     -1.927899
  H      -2.294811      1.519685      0.719988
  H      -0.697288      1.561971      1.492223
  H      -1.938549      0.460093      2.093019
  H      -2.903498     -0.908056     -0.243106
  H      -2.119384     -1.720690      1.123978
  H      -1.518064     -1.967578     -0.520147
  H       0.860386     -2.236592     -0.009933
  H       2.003111     -1.886484     -1.313639
  H       1.995853     -0.646109      1.374014
  H       2.713451      1.516717      0.486543
  H       2.396092      0.920486     -1.223592
>
22
Coordinates from ORCA-job ts_scan Relaxed Surface Scan Step 16 E -73.642823106203
  C       0.090427      1.484342     -1.080229
  C      -0.291339      0.242608     -0.776874
  N      -1.025960     -0.123601      0.331677
  C      -1.505584      0.929534      1.186366
  C      -1.932708     -1.243384      0.194506
  O       0.296474     -0.798011     -1.412755
  C       1.344783     -1.442883     -0.621237
  C       1.964405     -0.465606      0.312186
  C       2.286547      0.739509     -0.146270
  H      -0.386155      2.346262     -0.639294
  H       0.714446      1.645438     -1.939341
  H      -2.272492      1.546993      0.704158
  H      -0.678009      1.570202      1.483057
  H      -1.935668      0.487848      2.082671
  H      -2.906921     -0.928352     -0.194930
  H      -2.083712     -1.712590      1.165413
  H      -1.515415     -1.975790     -0.487973
  H       0.914912     -2.290298     -0.087131
  H       2.036470     -1.816723     -1.372629
  H       1.876580     -0.646042      1.375576
  H       2.588964      1.537485      0.519330
  H       2.419953      0.913061     -1.200396
>
22
Coordinates from ORCA-job ts_scan Relaxed Surface Scan Step 17 E -73.636844401991
  C       0.142651      1.460473     -1.074247
  C      -0.300832      0.229759     -0.789176
  N      -1.034431     -0.108608      0.324732
  C      -1.502443      0.958835      1.168059
  C      -1.922104     -1.247948      0.238978
  O       0.254475     -0.823449     -1.421514
  C       1.368185     -1.444275     -0.667127
  C       1.922913     -0.485191      0.314144
  C       2.222609      0.741274     -0.116891
  H      -0.297119      2.339427     -0.628339
  H       0.740606      1.599439     -1.955737
  H      -2.255526      1.584357      0.675357
  H      -0.667425      1.588938      1.466941
  H      -1.945071      0.531266      2.064798
  H      -2.912723     -0.959927     -0.128469
  H      -2.036047     -1.698009      1.223892
  H      -1.509269     -1.986522     -0.439042
  H       0.992731     -2.350352     -0.193424
  H       2.071919     -1.717260     -1.449660
  H       1.753969     -0.671406      1.366563
  H       2.460446      1.542593      0.570579
  H       2.452483      0.916587     -1.154535
>
22
Coordinates from ORCA-job ts_scan Relaxed Surface Scan Step 18 E -73.630682632881
  C       0.203213      1.420717     -1.065059
  C      -0.316344      0.208042     -0.793423
  N      -1.060566     -0.083413      0.321439
  C      -1.523466      1.009943      1.134144
  C      -1.913692     -1.250859      0.312383
  O       0.191009     -0.864180     -1.414776
  C       1.414535     -1.439792     -0.739923
  C       1.893940     -0.527480      0.305618
  C       2.160613      0.733047     -0.072235
  H      -0.192197      2.321345     -0.620793
  H       0.767398      1.529652     -1.973372
  H      -2.249876      1.641921      0.611667
  H      -0.683410      1.628244      1.443901
  H      -1.996238      0.609372      2.027514
  H      -2.924141     -1.006723     -0.030741
  H      -1.980406     -1.664758      1.317329
  H      -1.499676     -2.002023     -0.350146
  H       1.128177     -2.420061     -0.365869
  H       2.109184     -1.553425     -1.568129
  H       1.641628     -0.745165      1.335170
  H       2.327681      1.517393      0.654846
  H       2.502631      0.938202     -1.073665
>
22
Coordinates from ORCA-job ts_scan Relaxed Surface Scan Step 19 E -73.625207702628
  C       0.273044      1.361211     -1.032817
  C      -0.332784      0.170489     -0.771412
  N      -1.109770     -0.052272      0.331328
  C      -1.585233      1.080581      1.082363
  C      -1.918462     -1.247267      0.415428
  O       0.114204     -0.919249     -1.373720
  C       1.498278     -1.426788     -0.840875
  C       1.916354     -0.596203      0.268463
  C       2.120072      0.712783     -0.028811
  H      -0.081628      2.284326     -0.600496
  H       0.789933      1.439535     -1.973275
  H      -2.260804      1.713191      0.497855
  H      -0.749447      1.687315      1.425147
  H      -2.120339      0.722578      1.957848
  H      -2.938110     -1.065073      0.062744
  H      -1.964779     -1.586981      1.448820
  H      -1.478135     -2.028671     -0.191938
  H       1.315440     -2.470009     -0.605291
  H       2.121054     -1.336206     -1.726097
  H       1.599546     -0.875870      1.265405
  H       2.219122      1.451818      0.756472
  H       2.572442      0.980763     -0.971259
>
22
Coordinates from ORCA-job ts_scan Relaxed Surface Scan Step 20 E -73.667784735778
  C       0.202897      1.585145     -0.934349
  C      -0.640287      0.379580     -1.100595
  N      -1.293186     -0.100240     -0.007359
  C      -1.271848      0.535346      1.287385
  C      -2.171141     -1.236844     -0.151647
  O      -0.700129     -0.179293     -2.185711
  C       1.792289     -1.465198      0.379998
  C       2.070903     -0.170058      0.473523
  C       2.104947      0.734030     -0.673944
  H       0.031033      2.237794     -0.090218
  H       0.325134      2.108141     -1.873595
  H      -1.991532      1.354693      1.359579
  H      -0.281877      0.907432      1.530238
  H      -1.529179     -0.206038      2.040622
  H      -3.202917     -0.956026      0.067543
  H      -1.874652     -2.034447      0.530151
  H      -2.110427     -1.596772     -1.172222
  H       1.763274     -2.099135      1.255935
  H       1.583321     -1.925314     -0.578178
  H       2.267089      0.261295      1.449467
  H       2.729174      1.613123     -0.570109
  H       2.197113      0.252786     -1.640633
>
22
Coordinates from ORCA-job ts_scan Relaxed Surface Scan Step 21 E -73.680708554590
  C       0.247760      1.550423     -0.904159
  C      -0.642716      0.375640     -1.096939
  N      -1.315787     -0.105684     -0.017618
  C      -1.279260      0.495523      1.293641
  C      -2.232128     -1.207675     -0.191691
  O      -0.721947     -0.150862     -2.195883
  C       1.874380     -1.439610      0.440917
  C       2.095639     -0.131861      0.470830
  C       2.061804      0.729208     -0.717474
  H       0.087511      2.182056     -0.040903
  H       0.332485      2.111533     -1.826459
  H      -1.979687      1.329311      1.386554
  H      -0.281174      0.836663      1.546588
  H      -1.554575     -0.259073      2.027167
  H      -3.252921     -0.898238      0.039470
  H      -1.960726     -2.033892      0.466039
  H      -2.186308     -1.539940     -1.222325
  H       1.894300     -2.035176      1.343670
  H       1.666930     -1.951236     -0.491212
  H       2.296151      0.349320      1.422696
  H       2.713643      1.594811     -0.676378
  H       2.136625      0.198758     -1.660649
>
22
Coordinates from ORCA-job ts_scan Relaxed Surface Scan Step 22 E -73.693758677023
  C       0.291293      1.510093     -0.876941
  C      -0.637997      0.361231     -1.087779
  N      -1.338401     -0.108991     -0.021816
  C      -1.292771      0.469772      1.299718
  C      -2.287999     -1.178853     -0.219174
  O      -0.723486     -0.147746     -2.193614
  C       1.957439     -1.418449      0.472883
  C       2.115007     -0.102314      0.463292
  C       2.019077      0.730038     -0.749364
  H       0.135711      2.124483      0.000631
  H       0.336581      2.104294     -1.782245
  H      -1.963872      1.326405      1.399722
  H      -0.285624      0.769645      1.567926
  H      -1.602644     -0.286216      2.017794
  H      -3.299810     -0.840398      0.010357
  H      -2.047378     -2.023407      0.427082
  H      -2.245549     -1.496477     -1.254519
  H       2.021469     -1.987369      1.390735
  H       1.759946     -1.965918     -0.440957
  H       2.309607      0.413330      1.398605
  H       2.691444      1.582316     -0.753102
  H       2.087955      0.164531     -1.673352
>
22
Coordinates from ORCA-job ts_scan Relaxed Surface Scan Step 23 E -73.706872719641
  C       0.333406      1.467151     -0.854129
  C      -0.626266      0.338381     -1.075966
  N      -1.357227     -0.111176     -0.022566
  C      -1.308324      0.456016      1.304274
  C      -2.334743     -1.152689     -0.236729
  O      -0.708867     -0.166009     -2.183494
  C       2.031621     -1.401317      0.483782
  C       2.126379     -0.080342      0.454777
  C       1.976200      0.736305     -0.769909
  H       0.175737      2.069557      0.032499
  H       0.340509      2.087579     -1.744064
  H      -1.948122      1.336386      1.401913
  H      -0.294521      0.715033      1.589521
  H      -1.656935     -0.293177      2.011531
  H      -3.337988     -0.787789     -0.010738
  H      -2.122342     -2.009722      0.402926
  H      -2.293653     -1.461969     -1.274628
  H       2.132649     -1.954240      1.408143
  H       1.850435     -1.970367     -0.420284
  H       2.307125      0.456016      1.381603
  H       2.663144      1.577912     -0.802280
  H       2.051782      0.148463     -1.680301
