
 *******************************************************************************
 *                                                                             *
 *  --------------------------------                                           *
 *   Amsterdam Modeling Suite (AMS)              2026.103                      *
 *  --------------------------------                                           *
 *                                               r260501 2026-05-01 873454b5   *
 *                                                                             *
 *                                                                             *
 *                              =================                              *
 *                              |               |                              *
 *                              |     A M S     |                              *
 *                              |               |                              *
 *                              =================                              *
 *                                                                             *
 *                                                                             *
 *   Online information and documentation:  https://www.scm.com/support/       *
 *   E-mail:  support@scm.com   info@scm.com                                   *
 *                                                                             *
 *   Scientific publications using AMS results must be properly referenced     *
 *   See the User Manuals (or the web site) for recommended citations          *
 *   The terms and conditions of the End User License Agreement apply to       *
 *   the use of AMS, https://www.scm.com/license-terms/                        *
 *                                                                             *
 **********************  x86_64_linux_intel / intelmpi  ************************
 
 Licensed to: Jong-June Jeon / University of Seoul 2026-06-02 13:44:15
 SCM User ID: u30731
  
 AMS 2026.103  RunTime: Jun03-2026 20:29:32  ShM Nodes: 1  Procs: 1

 AMS jobname: c5_fragB_opt
 AMS jobid  : 305008961

 Start   directory: /gpfs/home1/yeseo1ee/projects/eda-asm-prediction/ADF_800/adf_outputs/batch_004/qmrxn20_e2_B_E_A_A_C_A/
 Results directory: /gpfs/home1/yeseo1ee/projects/eda-asm-prediction/ADF_800/adf_outputs/batch_004/qmrxn20_e2_B_E_A_A_C_A/c5_fragB_opt.results/
 Scratch directory: /tmp/amstmp_c5_fragB_opt_kid0.305008961/

 RNG seed: -760313319 734751232 -1138277947 -1447323542 1553736455 -2082572603 -843127965 -662563021



                      ************************************************************************
                      *  ADF 2026.103  RunTime: Jun03-2026 20:29:32  ShM Nodes: 1  Procs: 1  *
                      ************************************************************************
  

       ***************************
       *  GEOMETRY OPTIMIZATION  *
       ***************************

Optimization Method                    Quasi Newton
Optimization Coordinates               Delocalized Coordinates
Optimize lattice                       F
 
 ------------------------------------------------------
 Convergence criteria (Hartree,Angstrom)
 ------------------------------------------------------
 Maximum gradient               0.000100000000
 Maximum rms gradient           0.000066666667
 Maximum step allowed           0.010000000000
 Maximum rms step allowed       0.006666666667
 Maximum energy change allowe   0.000120000000
 Maximum stress energy allowe   0.000500000000
 
Initial model Hessian                  Automatic Hessian
 
------------------------------------
Quasi-Newton Optimizer Parameters
------------------------------------
Hessian Update Method                  BFGS
Maximum number of steps                  200
First GDIIS cycle                          0
Maximum GDIIS vectors                      0
Trust radius (bohr)                        0.200000
Trust radius varies                        T
Constraints converged at all steps         T
Use projector                              T
 
 Rigid motions settings for: old optimizer
 Atomic rotations (x,y,z):     T T T
 Atomic translations (x,y,z):  T T T
 Tolerance:                  1.000000000000000E-006

--------
Geometry
--------
Formula: C2H6N2O2
Atoms
  Index Symbol   x (angstrom)   y (angstrom)   z (angstrom)
      1      C    -0.38463406     0.06080921    -0.12301478
      2      C    -0.26889913    -0.19089162     1.26420526
      3      H    -2.35012302     0.94076838     1.35450060
      4      H    -1.46066374     0.19997509     1.56288332
      5      H     0.30652902     0.56493419     1.79085772
      6      H    -0.03933015    -1.20997318     1.55054462
      7      N    -0.65455092    -1.12076782    -1.00808385
      8      O    -1.20966960    -0.89414554    -2.08426195
      9      O    -0.34826782    -2.23525921    -0.59617613
     10      N    -0.96464663     1.20357569    -0.46975611
     11      H    -1.26809965     1.21150371    -1.43744645
     12      H    -1.76612051     1.38686461     0.28808039

Total System Charge              0.00000


----------------
ADF Engine Input
----------------
 
   Basis
     Type TZ2P
     Core None
   End
   XC
     GGA BLYP
     Dispersion GRIMME3 BJDAMP
   End
   Symmetry NOSYM
   NumericalQuality Normal
   Unrestricted No
   SCF
     Iterations 200
     Converge 1.0e-6
   End
   Save TAPE21
 

 Title: *** (NO TITLE) ***

 Using automatic Hessian for delocalized coordinates.
 *** GO1_GOStep1 ***

 Energy gradients wrt nuclear displacements
 ==========================================

     Atom      Cartesian (a.u./angstrom)
                 X         Y         Z
 ----------------------------------------
     1 C     0.023670  0.002689 -0.019605
     2 C    -0.026578  0.001618  0.002525
     3 H    -0.016523  0.011914  0.003451
     4 H     0.018385 -0.011742 -0.003425
     5 H     0.001187 -0.003648 -0.008849
     6 H     0.003730  0.004433 -0.004737
     7 N     0.000854 -0.001870 -0.001270
     8 O     0.011413 -0.010446  0.035933
     9 O    -0.017028  0.030004 -0.013202
    10 N    -0.016105 -0.011470  0.002985
    11 H     0.011759 -0.001662  0.012709
    12 H     0.005236 -0.009819 -0.006516
 ----------------------------------------
 
----------------------------------------------------------------------
Geometry Convergence after Step   1       (Hartree/Angstrom,Angstrom)
----------------------------------------------------------------------
current energy                               -2.27984051 Hartree
energy change                      -2.27984051     0.00012000    F
constrained gradient max            0.03593281     0.00010000    F
constrained gradient rms            0.01343748     0.00006667    F
gradient max                        0.03593281
gradient rms                        0.01343748
cart. step max                      0.05301448     0.01000000    F
cart. step rms                      0.02093121     0.00666667    F
 

--------
Geometry
--------
Formula: C2H6N2O2
Atoms
  Index Symbol   x (angstrom)   y (angstrom)   z (angstrom)
      1      C    -0.41179552     0.04564909    -0.12036077
      2      C    -0.27160750    -0.19397612     1.27368379
      3      H    -2.32891457     0.97239069     1.37763134
      4      H    -1.45941624     0.22391064     1.58299477
      5      H     0.31302403     0.56065126     1.79851161
      6      H    -0.06145756    -1.21552175     1.57474192
      7      N    -0.66821439    -1.14298689    -1.02214674
      8      O    -1.17753665    -0.90453875    -2.13727643
      9      O    -0.30142917    -2.26052147    -0.62060492
     10      N    -0.97425591     1.20474573    -0.47310766
     11      H    -1.30427380     1.21436832    -1.44019029
     12      H    -1.76259894     1.41322277     0.29845603

Total System Charge              0.00000

 *** GO1_GOStep2 ***

 Energy gradients wrt nuclear displacements
 ==========================================

     Atom      Cartesian (a.u./angstrom)
                 X         Y         Z
 ----------------------------------------
     1 C     0.028257 -0.001470 -0.016274
     2 C    -0.021384  0.002525  0.012271
     3 H    -0.015904  0.012032  0.001922
     4 H     0.019473 -0.013153 -0.002747
     5 H     0.002002 -0.001170 -0.004196
     6 H     0.003258  0.001936 -0.002402
     7 N    -0.013095  0.005211  0.011574
     8 O    -0.000090  0.000407 -0.004449
     9 O     0.002364 -0.002795  0.001088
    10 N    -0.011439  0.003121  0.004679
    11 H     0.005702  0.000552  0.002335
    12 H     0.000858 -0.007197 -0.003801
 ----------------------------------------

 dE(predicted):    -0.30993E-02, dE(actual):    -0.25415E-02, Trust radius:    0.400000, all in a.u.
 
----------------------------------------------------------------------
Geometry Convergence after Step   2       (Hartree/Angstrom,Angstrom)
----------------------------------------------------------------------
current energy                               -2.28238204 Hartree
energy change                      -0.00254153     0.00012000    F
constrained gradient max            0.02824453     0.00010000    F
constrained gradient rms            0.00960129     0.00006667    F
gradient max                        0.02824453
gradient rms                        0.00960129
cart. step max                      0.05411387     0.01000000    F
cart. step rms                      0.02399665     0.00666667    F
 

--------
Geometry
--------
Formula: C2H6N2O2
Atoms
  Index Symbol   x (angstrom)   y (angstrom)   z (angstrom)
      1      C    -0.44585877     0.03113894    -0.11574416
      2      C    -0.27576973    -0.20145948     1.27937702
      3      H    -2.29618817     1.00901034     1.40385864
      4      H    -1.46175014     0.25560366     1.60274122
      5      H     0.31362947     0.54869739     1.81170425
      6      H    -0.09661840    -1.22677292     1.59681421
      7      N    -0.61537978    -1.15336796    -1.06143993
      8      O    -1.16380916    -0.91678295    -2.16681291
      9      O    -0.26837032    -2.27921795    -0.64343680
     10      N    -0.98742759     1.20086654    -0.48209386
     11      H    -1.35838767     1.20009719    -1.44203940
     12      H    -1.75254595     1.44958071     0.30940434

Total System Charge              0.00000

 *** GO1_GOStep3 ***

 Energy gradients wrt nuclear displacements
 ==========================================

     Atom      Cartesian (a.u./angstrom)
                 X         Y         Z
 ----------------------------------------
     1 C     0.007068 -0.003937 -0.007324
     2 C    -0.015512  0.005208  0.017599
     3 H    -0.013555  0.012389 -0.000789
     4 H     0.021876 -0.015693 -0.002131
     5 H     0.003652  0.000922  0.000408
     6 H     0.000720 -0.001139  0.001234
     7 N     0.024105  0.009568 -0.006302
     8 O    -0.018364  0.003047 -0.015018
     9 O    -0.002637 -0.021104  0.012485
    10 N    -0.000395  0.011310  0.003938
    11 H    -0.002471  0.001587 -0.005491
    12 H    -0.004487 -0.002159  0.001391
 ----------------------------------------

 dE(predicted):    -0.19686E-02, dE(actual):    -0.10596E-02, Trust radius:    0.400000, all in a.u.
 
----------------------------------------------------------------------
Geometry Convergence after Step   3       (Hartree/Angstrom,Angstrom)
----------------------------------------------------------------------
current energy                               -2.28344167 Hartree
energy change                      -0.00105962     0.00012000    F
constrained gradient max            0.02405133     0.00010000    F
constrained gradient rms            0.01038574     0.00006667    F
gradient max                        0.02405133
gradient rms                        0.01038574
cart. step max                      0.08215464     0.01000000    F
cart. step rms                      0.03739770     0.00666667    F
 

--------
Geometry
--------
Formula: C2H6N2O2
Atoms
  Index Symbol   x (angstrom)   y (angstrom)   z (angstrom)
      1      C    -0.50513355     0.00348774    -0.10636944
      2      C    -0.29187085    -0.21448868     1.27840799
      3      H    -2.24652403     1.07415259     1.44595221
      4      H    -1.46276943     0.31001968     1.63113771
      5      H     0.32266766     0.52464291     1.79811603
      6      H    -0.15407633    -1.24093025     1.61500948
      7      N    -0.63351167    -1.17357741    -1.06633835
      8      O    -1.08165452    -0.91644182    -2.19926490
      9      O    -0.18675341    -2.27002441    -0.70028077
     10      N    -1.00972412     1.17688075    -0.49241182
     11      H    -1.42758378     1.15567971    -1.43338289
     12      H    -1.73154218     1.48799268     0.32175739

Total System Charge              0.00000

 *** GO1_GOStep4 ***

 Energy gradients wrt nuclear displacements
 ==========================================

     Atom      Cartesian (a.u./angstrom)
                 X         Y         Z
 ----------------------------------------
     1 C     0.000594  0.002200 -0.009184
     2 C    -0.013099  0.008892  0.014841
     3 H    -0.012280  0.013992 -0.003821
     4 H     0.026198 -0.019913 -0.002628
     5 H     0.003651  0.001316  0.001444
     6 H    -0.001673 -0.001758  0.002853
     7 N    -0.009154 -0.009067 -0.004091
     8 O     0.006353 -0.002101  0.002647
     9 O     0.002002  0.002373 -0.004912
    10 N     0.012485  0.002694 -0.000099
    11 H    -0.006454  0.000578 -0.004310
    12 H    -0.008623  0.000793  0.007260
 ----------------------------------------

 dE(predicted):    -0.24175E-02, dE(actual):    -0.19625E-02, Trust radius:    0.800000, all in a.u.
 
----------------------------------------------------------------------
Geometry Convergence after Step   4       (Hartree/Angstrom,Angstrom)
----------------------------------------------------------------------
current energy                               -2.28540417 Hartree
energy change                      -0.00196251     0.00012000    F
constrained gradient max            0.02621398     0.00010000    F
constrained gradient rms            0.00859950     0.00006667    F
gradient max                        0.02621398
gradient rms                        0.00859950
cart. step max                      0.01945316     0.01000000    F
cart. step rms                      0.00773368     0.00666667    F
 

--------
Geometry
--------
Formula: C2H6N2O2
Atoms
  Index Symbol   x (angstrom)   y (angstrom)   z (angstrom)
      1      C    -0.51508552     0.00016691    -0.10227809
      2      C    -0.29278007    -0.22040520     1.27193471
      3      H    -2.23247189     1.07328259     1.45197428
      4      H    -1.47508089     0.32696799     1.63241041
      5      H     0.31321736     0.51842189     1.79926835
      6      H    -0.15782727    -1.24773524     1.60496256
      7      N    -0.62835269    -1.17108177    -1.06522134
      8      O    -1.08955935    -0.91393993    -2.19502725
      9      O    -0.16730025    -2.26162942    -0.69699427
     10      N    -1.01276428     1.17048462    -0.49586282
     11      H    -1.43100685     1.14576357    -1.43466819
     12      H    -1.71946450     1.49709749     0.32183428

Total System Charge              0.00000

 *** GO1_GOStep5 ***

 Energy gradients wrt nuclear displacements
 ==========================================

     Atom      Cartesian (a.u./angstrom)
                 X         Y         Z
 ----------------------------------------
     1 C    -0.003989  0.006743 -0.005219
     2 C    -0.018101  0.011850  0.011149
     3 H    -0.012346  0.015842 -0.007144
     4 H     0.031833 -0.023048 -0.003144
     5 H     0.003393  0.000329  0.000782
     6 H    -0.001725 -0.001473  0.002152
     7 N    -0.005247 -0.009048 -0.005718
     8 O     0.003328  0.001743  0.000224
     9 O     0.002831  0.002114  0.000034
    10 N     0.015674 -0.006684 -0.003738
    11 H    -0.005161  0.000010 -0.002962
    12 H    -0.010489  0.001622  0.013585
 ----------------------------------------

 dE(predicted):    -0.65652E-03, dE(actual):    -0.13085E-02, Trust radius:    0.800000, all in a.u.
 
----------------------------------------------------------------------
Geometry Convergence after Step   5       (Hartree/Angstrom,Angstrom)
----------------------------------------------------------------------
current energy                               -2.28671272 Hartree
energy change                      -0.00130855     0.00012000    F
constrained gradient max            0.03186642     0.00010000    F
constrained gradient rms            0.00988480     0.00006667    F
gradient max                        0.03186642
gradient rms                        0.00988480
cart. step max                      0.10553955     0.01000000    F
cart. step rms                      0.04806518     0.00666667    F
 

--------
Geometry
--------
Formula: C2H6N2O2
Atoms
  Index Symbol   x (angstrom)   y (angstrom)   z (angstrom)
      1      C    -0.54354291    -0.00692825    -0.07428674
      2      C    -0.28050180    -0.25107789     1.21806414
      3      H    -2.15469638     1.01543531     1.48247768
      4      H    -1.58062043     0.42359999     1.61476387
      5      H     0.24431057     0.49233468     1.79840887
      6      H    -0.12963509    -1.28143996     1.51145572
      7      N    -0.60730770    -1.13624347    -1.03703892
      8      O    -1.16682419    -0.88493505    -2.14136334
      9      O    -0.11031981    -2.20475795    -0.63140865
     10      N    -1.01727512     1.13760304    -0.50429651
     11      H    -1.39031419     1.10622077    -1.44299152
     12      H    -1.67174917     1.50758229     0.29854804

Total System Charge              0.00000

 *** GO1_GOStep6 ***

 Energy gradients wrt nuclear displacements
 ==========================================

     Atom      Cartesian (a.u./angstrom)
                 X         Y         Z
 ----------------------------------------
     1 C    -0.019514  0.032902  0.039107
     2 C    -0.069393  0.041816 -0.038834
     3 H     0.023276 -0.005660 -0.018607
     4 H     0.035034 -0.013008 -0.018904
     5 H     0.005027 -0.008920 -0.009985
     6 H    -0.001915  0.002886 -0.004675
     7 N     0.021591  0.004879 -0.010398
     8 O    -0.022730  0.027048 -0.014636
     9 O     0.007977  0.003134  0.037791
    10 N     0.032153 -0.079957 -0.023896
    11 H     0.009393 -0.003441  0.013199
    12 H    -0.020899 -0.001679  0.049838
 ----------------------------------------

 dE(predicted):    -0.92306E-02, dE(actual):    -0.65225E-02, Trust radius:    0.800000, all in a.u.
 
----------------------------------------------------------------------
Geometry Convergence after Step   6       (Hartree/Angstrom,Angstrom)
----------------------------------------------------------------------
current energy                               -2.29323527 Hartree
energy change                      -0.00652255     0.00012000    F
constrained gradient max            0.07996509     0.00010000    F
constrained gradient rms            0.02825238     0.00006667    F
gradient max                        0.07996509
gradient rms                        0.02825238
cart. step max                      0.08698984     0.01000000    F
cart. step rms                      0.03505478     0.00666667    F
 

--------
Geometry
--------
Formula: C2H6N2O2
Atoms
  Index Symbol   x (angstrom)   y (angstrom)   z (angstrom)
      1      C    -0.59059913    -0.02624216    -0.07301851
      2      C    -0.29211338    -0.26833299     1.23069170
      3      H    -2.14094339     1.05812242     1.48130691
      4      H    -1.56808666     0.45260539     1.64137204
      5      H     0.22303405     0.47493055     1.82607827
      6      H    -0.16601065    -1.30019217     1.53957184
      7      N    -0.59081776    -1.15603675    -1.05759074
      8      O    -1.15177069    -0.91852134    -2.15953090
      9      O    -0.02332997    -2.20154347    -0.69335673
     10      N    -1.04091789     1.13242333    -0.52172706
     11      H    -1.46838363     1.08615094    -1.44395479
     12      H    -1.59853711     1.58402978     0.32249060

Total System Charge              0.00000

 *** GO1_GOStep7 ***

 Energy gradients wrt nuclear displacements
 ==========================================

     Atom      Cartesian (a.u./angstrom)
                 X         Y         Z
 ----------------------------------------
     1 C    -0.033275  0.031379  0.021125
     2 C    -0.051837  0.035646 -0.011165
     3 H     0.017606 -0.003934 -0.022356
     4 H     0.040446 -0.018606 -0.016000
     5 H     0.004378 -0.005585 -0.004163
     6 H    -0.004804  0.000538 -0.000240
     7 N     0.022817 -0.002027 -0.013624
     8 O    -0.017031  0.018047 -0.009557
     9 O     0.007747 -0.000705  0.025433
    10 N     0.025082 -0.060513 -0.034738
    11 H     0.005234 -0.004718  0.003369
    12 H    -0.016364  0.010478  0.061915
 ----------------------------------------

 dE(predicted):    -0.20244E-02, dE(actual):    -0.16469E-02, Trust radius:    1.000000, all in a.u.
 
----------------------------------------------------------------------
Geometry Convergence after Step   7       (Hartree/Angstrom,Angstrom)
----------------------------------------------------------------------
current energy                               -2.29488213 Hartree
energy change                      -0.00164686     0.00012000    F
constrained gradient max            0.06194063     0.00010000    F
constrained gradient rms            0.02453427     0.00006667    F
gradient max                        0.06194063
gradient rms                        0.02453427
cart. step max                      0.21122064     0.01000000    F
cart. step rms                      0.07411091     0.00666667    F
 

--------
Geometry
--------
Formula: C2H6N2O2
Atoms
  Index Symbol   x (angstrom)   y (angstrom)   z (angstrom)
      1      C    -0.49488057     0.01263047    -0.09489658
      2      C    -0.22972225    -0.24229126     1.24915651
      3      H    -2.26248518     0.97984571     1.40888380
      4      H    -1.56927238     0.31221558     1.62278513
      5      H     0.20318872     0.54223633     1.85476103
      6      H     0.01671457    -1.25928398     1.52588249
      7      N    -0.62850409    -1.15318785    -1.03281575
      8      O    -1.20111203    -0.91283688    -2.12711640
      9      O    -0.23455062    -2.26749881    -0.64212285
     10      N    -1.00199207     1.18761922    -0.49990659
     11      H    -1.34337941     1.17973042    -1.45490562
     12      H    -1.66248090     1.53821455     0.28262747

Total System Charge              0.00000

 *** GO1_GOStep8 ***

 Energy gradients wrt nuclear displacements
 ==========================================

     Atom      Cartesian (a.u./angstrom)
                 X         Y         Z
 ----------------------------------------
     1 C    -0.017513  0.010100 -0.020682
     2 C    -0.032299  0.010084  0.033280
     3 H    -0.022487  0.034097 -0.028065
     4 H     0.066917 -0.043318  0.001816
     5 H    -0.003282 -0.005540 -0.002184
     6 H     0.004869  0.003517 -0.003909
     7 N     0.026921  0.004252  0.000477
     8 O    -0.017232  0.007365 -0.009595
     9 O    -0.003109 -0.010420  0.012698
    10 N    -0.005479 -0.007516 -0.016823
    11 H     0.011497 -0.001587  0.006707
    12 H    -0.008803 -0.001033  0.026279
 ----------------------------------------

 dE(predicted):    -0.59819E-02, dE(actual):    -0.82504E-04, Trust radius:    0.225149, all in a.u.
 
----------------------------------------------------------------------
Geometry Convergence after Step   8       (Hartree/Angstrom,Angstrom)
----------------------------------------------------------------------
current energy                               -2.29496463 Hartree
energy change                      -0.00008250     0.00012000    T
constrained gradient max            0.06698447     0.00010000    F
constrained gradient rms            0.02026496     0.00006667    F
gradient max                        0.06698447
gradient rms                        0.02026496
cart. step max                      0.04158627     0.01000000    F
cart. step rms                      0.01328240     0.00666667    F
 

--------
Geometry
--------
Formula: C2H6N2O2
Atoms
  Index Symbol   x (angstrom)   y (angstrom)   z (angstrom)
      1      C    -0.50058008     0.00585524    -0.08440189
      2      C    -0.22179002    -0.25068269     1.23516571
      3      H    -2.24762502     0.97276072     1.42576613
      4      H    -1.61085865     0.35031042     1.62114716
      5      H     0.19740805     0.53465835     1.84706867
      6      H     0.02158023    -1.26895490     1.50749280
      7      N    -0.63107211    -1.14961152    -1.02473418
      8      O    -1.19645559    -0.89956297    -2.12284427
      9      O    -0.21878652    -2.25814350    -0.63672439
     10      N    -1.00379143     1.17586354    -0.49788916
     11      H    -1.34960722     1.16364124    -1.45011307
     12      H    -1.64689784     1.54125957     0.27239913

Total System Charge              0.00000

 *** GO1_GOStep9 ***

 Energy gradients wrt nuclear displacements
 ==========================================

     Atom      Cartesian (a.u./angstrom)
                 X         Y         Z
 ----------------------------------------
     1 C    -0.013415  0.014821 -0.009934
     2 C    -0.046051  0.017221  0.018443
     3 H    -0.011166  0.027502 -0.028540
     4 H     0.061697 -0.038283 -0.003600
     5 H    -0.000144 -0.005807 -0.004947
     6 H     0.004041  0.003401 -0.004983
     7 N     0.021876  0.004362  0.002565
     8 O    -0.017575  0.013037 -0.012149
     9 O     0.000733 -0.007407  0.018133
    10 N    -0.001658 -0.022502 -0.011140
    11 H     0.010784 -0.002168  0.007034
    12 H    -0.009123 -0.004177  0.029118
 ----------------------------------------

 dE(predicted):    -0.46356E-02, dE(actual):    -0.65553E-02, Trust radius:    0.450298, all in a.u.
 
----------------------------------------------------------------------
Geometry Convergence after Step   9       (Hartree/Angstrom,Angstrom)
----------------------------------------------------------------------
current energy                               -2.30151997 Hartree
energy change                      -0.00655534     0.00012000    F
constrained gradient max            0.06176201     0.00010000    F
constrained gradient rms            0.01944669     0.00006667    F
gradient max                        0.06176201
gradient rms                        0.01944669
cart. step max                      0.09257441     0.01000000    F
cart. step rms                      0.02532060     0.00666667    F
 

--------
Geometry
--------
Formula: C2H6N2O2
Atoms
  Index Symbol   x (angstrom)   y (angstrom)   z (angstrom)
      1      C    -0.50172725    -0.00789209    -0.06397582
      2      C    -0.19591851    -0.26745917     1.21485681
      3      H    -2.23848478     0.96184258     1.45848589
      4      H    -1.70343305     0.42507905     1.62707340
      5      H     0.19659520     0.52287560     1.83779423
      6      H     0.04452450    -1.28762113     1.48287803
      7      N    -0.63668340    -1.14903790    -1.01291526
      8      O    -1.18333472    -0.88480455    -2.11591634
      9      O    -0.20037662    -2.25272754    -0.64638663
     10      N    -1.00540251     1.16127009    -0.49151154
     11      H    -1.36531347     1.14396913    -1.43940936
     12      H    -1.61892159     1.55189944     0.24135921

Total System Charge              0.00000

 *** GO1_GOStep10 ***

 Energy gradients wrt nuclear displacements
 ==========================================

     Atom      Cartesian (a.u./angstrom)
                 X         Y         Z
 ----------------------------------------
     1 C     0.004832  0.012123  0.016862
     2 C    -0.066921  0.027376 -0.013512
     3 H     0.025544 -0.004898 -0.020607
     4 H     0.028416 -0.007140 -0.016973
     5 H     0.005976 -0.004507 -0.008255
     6 H     0.002349  0.002237 -0.005673
     7 N     0.010605  0.005074  0.008197
     8 O    -0.012655  0.014742 -0.011236
     9 O     0.003500 -0.000515  0.017550
    10 N    -0.007573 -0.029016  0.012388
    11 H     0.006108 -0.001423  0.004393
    12 H    -0.000181 -0.014055  0.016864
 ----------------------------------------

 dE(predicted):    -0.11302E-01, dE(actual):    -0.10173E-01, Trust radius:    0.900596, all in a.u.
 
----------------------------------------------------------------------
Geometry Convergence after Step  10       (Hartree/Angstrom,Angstrom)
----------------------------------------------------------------------
current energy                               -2.31169324 Hartree
energy change                      -0.01017327     0.00012000    F
constrained gradient max            0.06687909     0.00010000    F
constrained gradient rms            0.01740255     0.00006667    F
gradient max                        0.06687909
gradient rms                        0.01740255
cart. step max                      0.10831680     0.01000000    F
cart. step rms                      0.03983231     0.00666667    F
 

--------
Geometry
--------
Formula: C2H6N2O2
Atoms
  Index Symbol   x (angstrom)   y (angstrom)   z (angstrom)
      1      C    -0.52802966    -0.03573130    -0.03547866
      2      C    -0.14340106    -0.30270502     1.19998863
      3      H    -2.23860446     0.97438872     1.49533877
      4      H    -1.81174985     0.51325397     1.66438625
      5      H     0.14982562     0.50104294     1.86053149
      6      H     0.11490438    -1.32032655     1.46352501
      7      N    -0.64523314    -1.15825014    -1.01000025
      8      O    -1.16789561    -0.87137579    -2.11537638
      9      O    -0.16486517    -2.25292533    -0.68681351
     10      N    -1.01413262     1.14453743    -0.49851157
     11      H    -1.40426380     1.10381295    -1.43522918
     12      H    -1.55503082     1.62167161     0.18997203

Total System Charge              0.00000

 *** GO1_GOStep11 ***

 Energy gradients wrt nuclear displacements
 ==========================================

     Atom      Cartesian (a.u./angstrom)
                 X         Y         Z
 ----------------------------------------
     1 C     0.016854 -0.001015  0.040636
     2 C    -0.060861  0.025235 -0.034944
     3 H     0.136742 -0.127800  0.026244
     4 H    -0.088607  0.115360 -0.060737
     5 H     0.004285 -0.000559 -0.006956
     6 H     0.000524 -0.000146 -0.003654
     7 N    -0.004057 -0.001304  0.011194
     8 O    -0.004122  0.015159 -0.006880
     9 O     0.005899  0.007107  0.011986
    10 N    -0.026031 -0.004317  0.034307
    11 H     0.002156  0.000174  0.001145
    12 H     0.017218 -0.027894 -0.012341
 ----------------------------------------
 Rebuilding optimization coordinates

 dE(predicted):    -0.61119E-02, dE(actual):    -0.13423E-02, Trust radius:    0.900596, all in a.u.
 
----------------------------------------------------------------------
Geometry Convergence after Step  11       (Hartree/Angstrom,Angstrom)
----------------------------------------------------------------------
current energy                               -2.31303557 Hartree
energy change                      -0.00134232     0.00012000    F
constrained gradient max            0.13682298     0.00010000    F
constrained gradient rms            0.04469634     0.00006667    F
gradient max                        0.13682298
gradient rms                        0.04469634
cart. step max                      0.06485864     0.01000000    F
cart. step rms                      0.02331194     0.00666667    F
 

--------
Geometry
--------
Formula: C2H6N2O2
Atoms
  Index Symbol   x (angstrom)   y (angstrom)   z (angstrom)
      1      C    -0.53626956    -0.04403477    -0.03283414
      2      C    -0.13557815    -0.31276364     1.21170930
      3      H    -2.26279719     1.03924736     1.50753669
      4      H    -1.80107796     0.49714248     1.71717491
      5      H     0.16575653     0.49995465     1.86684633
      6      H     0.11238033    -1.33303240     1.48507335
      7      N    -0.65798205    -1.16938581    -1.02080934
      8      O    -1.10951612    -0.87316574    -2.14361954
      9      O    -0.16085511    -2.25929213    -0.72793457
     10      N    -1.01783841     1.14176050    -0.50407259
     11      H    -1.44531274     1.08105919    -1.43129226
     12      H    -1.55938577     1.64990382     0.16455451

Total System Charge              0.00000

 *** GO1_GOStep12 ***

 Energy gradients wrt nuclear displacements
 ==========================================

     Atom      Cartesian (a.u./angstrom)
                 X         Y         Z
 ----------------------------------------
     1 C     0.019854 -0.001797  0.020546
     2 C    -0.046816  0.015343 -0.014507
     3 H     0.031458 -0.016569 -0.013286
     4 H     0.011427  0.004941 -0.017516
     5 H     0.004730  0.004740 -0.002202
     6 H     0.000472 -0.002843 -0.001224
     7 N    -0.026859 -0.007470  0.010747
     8 O     0.014683  0.001020  0.006008
     9 O     0.003950  0.018120 -0.006492
    10 N    -0.019746  0.005048  0.041568
    11 H    -0.006132  0.001620 -0.005000
    12 H     0.012979 -0.022154 -0.018641
 ----------------------------------------

 dE(predicted):    -0.99426E-02, dE(actual):    -0.10540E-01, Trust radius:    0.900596, all in a.u.
 
----------------------------------------------------------------------
Geometry Convergence after Step  12       (Hartree/Angstrom,Angstrom)
----------------------------------------------------------------------
current energy                               -2.32357602 Hartree
energy change                      -0.01054045     0.00012000    F
constrained gradient max            0.04681427     0.00010000    F
constrained gradient rms            0.01680436     0.00006667    F
gradient max                        0.04681427
gradient rms                        0.01680436
cart. step max                      0.08869796     0.01000000    F
cart. step rms                      0.03260174     0.00666667    F
 

--------
Geometry
--------
Formula: C2H6N2O2
Atoms
  Index Symbol   x (angstrom)   y (angstrom)   z (angstrom)
      1      C    -0.53055680    -0.04085041    -0.03490405
      2      C    -0.09345261    -0.31134909     1.20314785
      3      H    -2.30268079     1.00469297     1.48685705
      4      H    -1.86422050     0.47544728     1.71255756
      5      H     0.10903527     0.49885184     1.89309237
      6      H     0.20107829    -1.32019195     1.46308277
      7      N    -0.64753159    -1.16963544    -1.02284813
      8      O    -1.17600705    -0.89751015    -2.12439124
      9      O    -0.18689702    -2.27830276    -0.71539145
     10      N    -1.00326471     1.15620808    -0.50979123
     11      H    -1.42285532     1.08903295    -1.43503434
     12      H    -1.49112339     1.71100018     0.17595549

Total System Charge              0.00000

 *** GO1_GOStep13 ***

 Energy gradients wrt nuclear displacements
 ==========================================

     Atom      Cartesian (a.u./angstrom)
                 X         Y         Z
 ----------------------------------------
     1 C     0.004091 -0.004430  0.012488
     2 C    -0.030894  0.010876 -0.001562
     3 H     0.042249 -0.031275 -0.004006
     4 H    -0.002959  0.021525 -0.023317
     5 H    -0.000820  0.002038 -0.002110
     6 H     0.001352 -0.000433 -0.001406
     7 N    -0.003578  0.003992  0.007560
     8 O     0.000086 -0.000099 -0.004268
     9 O     0.001603 -0.000613  0.000063
    10 N    -0.019564  0.012966  0.020943
    11 H     0.002671 -0.002423 -0.001998
    12 H     0.005765 -0.012125 -0.002387
 ----------------------------------------

 dE(predicted):    -0.31531E-02, dE(actual):    -0.43103E-02, Trust radius:    1.000000, all in a.u.
 
----------------------------------------------------------------------
Geometry Convergence after Step  13       (Hartree/Angstrom,Angstrom)
----------------------------------------------------------------------
current energy                               -2.32788629 Hartree
energy change                      -0.00431027     0.00012000    F
constrained gradient max            0.04231264     0.00010000    F
constrained gradient rms            0.01330734     0.00006667    F
gradient max                        0.04231264
gradient rms                        0.01330734
cart. step max                      0.12671974     0.01000000    F
cart. step rms                      0.04302848     0.00666667    F
 

--------
Geometry
--------
Formula: C2H6N2O2
Atoms
  Index Symbol   x (angstrom)   y (angstrom)   z (angstrom)
      1      C    -0.52521043    -0.05213834    -0.02372089
      2      C    -0.02213978    -0.32387739     1.19163026
      3      H    -2.37872498     1.02546853     1.49794903
      4      H    -1.99094024     0.48563310     1.77544017
      5      H     0.07064870     0.47248491     1.92107165
      6      H     0.30871310    -1.32327714     1.44037552
      7      N    -0.64408349    -1.17832503    -1.02846693
      8      O    -1.19754044    -0.90159977    -2.11200060
      9      O    -0.19711311    -2.29880912    -0.74475573
     10      N    -0.98637517     1.15440246    -0.52521113
     11      H    -1.44070135     1.06494406    -1.43286256
     12      H    -1.40500902     1.79248724     0.13288385

Total System Charge              0.00000

 *** GO1_GOStep14 ***

 Energy gradients wrt nuclear displacements
 ==========================================

     Atom      Cartesian (a.u./angstrom)
                 X         Y         Z
 ----------------------------------------
     1 C    -0.000940 -0.012144  0.013075
     2 C    -0.007292  0.002765  0.002431
     3 H     0.034292 -0.030241  0.003214
     4 H    -0.007113  0.023924 -0.021956
     5 H    -0.006155  0.001491 -0.000362
     6 H     0.001414  0.000586  0.000048
     7 N    -0.001217  0.005650  0.003020
     8 O     0.002587 -0.005108  0.002602
     9 O    -0.002222 -0.004455 -0.006529
    10 N    -0.017669  0.025733  0.012964
    11 H     0.002009 -0.002218 -0.003664
    12 H     0.002307 -0.005981 -0.004842
 ----------------------------------------

 dE(predicted):    -0.42036E-02, dE(actual):    -0.57958E-02, Trust radius:    1.000000, all in a.u.
 
----------------------------------------------------------------------
Geometry Convergence after Step  14       (Hartree/Angstrom,Angstrom)
----------------------------------------------------------------------
current energy                               -2.33368211 Hartree
energy change                      -0.00579582     0.00012000    F
constrained gradient max            0.03434558     0.00010000    F
constrained gradient rms            0.01180067     0.00006667    F
gradient max                        0.03434558
gradient rms                        0.01180067
cart. step max                      0.13026285     0.01000000    F
cart. step rms                      0.04150049     0.00666667    F
 

--------
Geometry
--------
Formula: C2H6N2O2
Atoms
  Index Symbol   x (angstrom)   y (angstrom)   z (angstrom)
      1      C    -0.51780970    -0.05292823    -0.02600495
      2      C     0.02137427    -0.32790858     1.16308494
      3      H    -2.47203716     1.05924769     1.50690436
      4      H    -2.12120309     0.50571114     1.86849962
      5      H     0.08160994     0.43573907     1.93249962
      6      H     0.35901011    -1.32976565     1.39223938
      7      N    -0.63200506    -1.18876586    -1.03598430
      8      O    -1.20787896    -0.93438476    -2.11063497
      9      O    -0.17210683    -2.30171701    -0.74960169
     10      N    -0.96745515     1.15182468    -0.53973026
     11      H    -1.47142356     1.05291318    -1.42019210
     12      H    -1.30855101     1.84742784     0.11125300

Total System Charge              0.00000

 *** GO1_GOStep15 ***

 Energy gradients wrt nuclear displacements
 ==========================================

     Atom      Cartesian (a.u./angstrom)
                 X         Y         Z
 ----------------------------------------
     1 C    -0.000710 -0.012327  0.026432
     2 C    -0.003322  0.005589 -0.018339
     3 H     0.009125 -0.000464 -0.008002
     4 H     0.007766 -0.003408 -0.003554
     5 H    -0.006134 -0.000637  0.003227
     6 H     0.000636  0.000619  0.000767
     7 N     0.000373  0.005318 -0.000725
     8 O     0.004293 -0.011293  0.003767
     9 O    -0.004228 -0.002790 -0.007647
    10 N    -0.008900  0.022026  0.009650
    11 H     0.001350 -0.003227 -0.004102
    12 H    -0.000249  0.000591 -0.001472
 ----------------------------------------

 dE(predicted):    -0.31763E-02, dE(actual):    -0.40684E-02, Trust radius:    1.000000, all in a.u.
 
----------------------------------------------------------------------
Geometry Convergence after Step  15       (Hartree/Angstrom,Angstrom)
----------------------------------------------------------------------
current energy                               -2.33775047 Hartree
energy change                      -0.00406836     0.00012000    F
constrained gradient max            0.02643851     0.00010000    F
constrained gradient rms            0.00828970     0.00006667    F
gradient max                        0.02643851
gradient rms                        0.00828970
cart. step max                      0.15847249     0.01000000    F
cart. step rms                      0.04322335     0.00666667    F
 

--------
Geometry
--------
Formula: C2H6N2O2
Atoms
  Index Symbol   x (angstrom)   y (angstrom)   z (angstrom)
      1      C    -0.48609253    -0.06415926    -0.03431411
      2      C     0.07939207    -0.32173716     1.16913364
      3      H    -2.56848109     1.09250355     1.52552521
      4      H    -2.27967558     0.51225975     1.92514314
      5      H     0.12779828     0.43129679     1.95212860
      6      H     0.42107863    -1.32247650     1.39994329
      7      N    -0.63489374    -1.19443910    -1.05656739
      8      O    -1.24003363    -0.91055856    -2.10776026
      9      O    -0.17246648    -2.31003514    -0.78715219
     10      N    -0.93802110     1.11921618    -0.56263203
     11      H    -1.50058123     1.03524743    -1.40787370
     12      H    -1.21649980     1.85027554     0.07675843

Total System Charge              0.00000

 *** GO1_GOStep16 ***

 Energy gradients wrt nuclear displacements
 ==========================================

     Atom      Cartesian (a.u./angstrom)
                 X         Y         Z
 ----------------------------------------
     1 C    -0.010825  0.001255 -0.001252
     2 C     0.014032  0.006272  0.013129
     3 H     0.000014  0.012074 -0.013219
     4 H     0.009270 -0.014239  0.006829
     5 H    -0.003980 -0.002539  0.007760
     6 H     0.000353  0.000745  0.002079
     7 N    -0.005433 -0.000191 -0.013000
     8 O     0.002063 -0.000659  0.003891
     9 O    -0.001842 -0.001886 -0.002659
    10 N     0.000778 -0.001612  0.005272
    11 H    -0.002446  0.002682 -0.003525
    12 H    -0.001984 -0.001903 -0.005305
 ----------------------------------------
 Rebuilding optimization coordinates

 dE(predicted):    -0.22036E-02, dE(actual):    -0.21396E-02, Trust radius:    1.000000, all in a.u.
 
----------------------------------------------------------------------
Geometry Convergence after Step  16       (Hartree/Angstrom,Angstrom)
----------------------------------------------------------------------
current energy                               -2.33989008 Hartree
energy change                      -0.00213961     0.00012000    F
constrained gradient max            0.01415826     0.00010000    F
constrained gradient rms            0.00666023     0.00006667    F
gradient max                        0.01415826
gradient rms                        0.00666023
cart. step max                      0.14731790     0.01000000    F
cart. step rms                      0.05056784     0.00666667    F
 

--------
Geometry
--------
Formula: C2H6N2O2
Atoms
  Index Symbol   x (angstrom)   y (angstrom)   z (angstrom)
      1      C    -0.47377521    -0.05756231    -0.04420657
      2      C     0.09659353    -0.33929545     1.11845447
      3      H    -2.67465969     1.13117418     1.54185571
      4      H    -2.42699348     0.58901481     2.01895194
      5      H     0.17313535     0.38860611     1.92186210
      6      H     0.41758794    -1.35410340     1.31753670
      7      N    -0.60364582    -1.20658163    -1.05051226
      8      O    -1.24187225    -0.95597702    -2.09047806
      9      O    -0.08641403    -2.29458822    -0.77582409
     10      N    -0.92733670     1.11341164    -0.57126477
     11      H    -1.54942482     1.03600176    -1.37074973
     12      H    -1.11167103     1.86729304     0.07670721

Total System Charge              0.00000

 *** GO1_GOStep17 ***

 Energy gradients wrt nuclear displacements
 ==========================================

     Atom      Cartesian (a.u./angstrom)
                 X         Y         Z
 ----------------------------------------
     1 C     0.001831  0.014379  0.034519
     2 C    -0.006534  0.010368 -0.039126
     3 H    -0.002626  0.013482 -0.014562
     4 H     0.007260 -0.014373  0.011216
     5 H    -0.002559 -0.003088  0.005492
     6 H    -0.002171 -0.001389  0.000880
     7 N    -0.001992 -0.006650 -0.007285
     8 O     0.002470  0.000502  0.003449
     9 O     0.000427  0.002788  0.002214
    10 N     0.003673 -0.015481  0.005130
    11 H    -0.000829  0.001742 -0.000648
    12 H     0.001049 -0.002279 -0.001280
 ----------------------------------------

 dE(predicted):    -0.16120E-02, dE(actual):    -0.12945E-02, Trust radius:    1.000000, all in a.u.
 
----------------------------------------------------------------------
Geometry Convergence after Step  17       (Hartree/Angstrom,Angstrom)
----------------------------------------------------------------------
current energy                               -2.34118456 Hartree
energy change                      -0.00129448     0.00012000    F
constrained gradient max            0.03910669     0.00010000    F
constrained gradient rms            0.01098747     0.00006667    F
gradient max                        0.03910669
gradient rms                        0.01098747
cart. step max                      0.09514548     0.01000000    F
cart. step rms                      0.02901779     0.00666667    F
 

--------
Geometry
--------
Formula: C2H6N2O2
Atoms
  Index Symbol   x (angstrom)   y (angstrom)   z (angstrom)
      1      C    -0.46896694    -0.06644195    -0.05490270
      2      C     0.10207055    -0.33686262     1.16105804
      3      H    -2.64184072     1.11688044     1.54935190
      4      H    -2.39310643     0.53168561     1.92380646
      5      H     0.18242448     0.42974218     1.92520247
      6      H     0.44123254    -1.34044704     1.38223494
      7      N    -0.62956659    -1.20527752    -1.05894715
      8      O    -1.26477129    -0.94693207    -2.10119920
      9      O    -0.13647293    -2.30488046    -0.78440153
     10      N    -0.92235819     1.12487140    -0.56464186
     11      H    -1.52829318     1.05239841    -1.37614034
     12      H    -1.14882752     1.86265713     0.09091160

Total System Charge              0.00000

 *** GO1_GOStep18 ***

 Energy gradients wrt nuclear displacements
 ==========================================

     Atom      Cartesian (a.u./angstrom)
                 X         Y         Z
 ----------------------------------------
     1 C    -0.017972  0.009541 -0.030139
     2 C     0.022346 -0.002460  0.039595
     3 H     0.008408 -0.009424  0.002860
     4 H    -0.002761  0.008219 -0.007178
     5 H    -0.002014 -0.002306  0.003829
     6 H     0.000150 -0.000439  0.001336
     7 N    -0.004223 -0.006281 -0.010218
     8 O     0.001170 -0.002979 -0.000379
     9 O    -0.001558  0.002803 -0.000591
    10 N    -0.002136 -0.000326  0.001702
    11 H     0.000135  0.002421  0.001365
    12 H    -0.001544  0.001232 -0.002181
 ----------------------------------------

 dE(predicted):    -0.14240E-02, dE(actual):     0.21769E-03, Trust radius:    0.150949, all in a.u.
 
----------------------------------------------------------------------
Geometry Convergence after Step  18       (Hartree/Angstrom,Angstrom)
----------------------------------------------------------------------
current energy                               -2.34096687 Hartree
energy change                       0.00021769     0.00012000    F
constrained gradient max            0.03959908     0.00010000    F
constrained gradient rms            0.01043845     0.00006667    F
gradient max                        0.03959908
gradient rms                        0.01043845
cart. step max                      0.02343022     0.01000000    F
cart. step rms                      0.00850844     0.00666667    F
 

--------
Geometry
--------
Formula: C2H6N2O2
Atoms
  Index Symbol   x (angstrom)   y (angstrom)   z (angstrom)
      1      C    -0.46185477    -0.06627773    -0.05095796
      2      C     0.09756306    -0.33784768     1.14834639
      3      H    -2.65845749     1.11807171     1.54817799
      4      H    -2.41048028     0.54000181     1.94723667
      5      H     0.18588902     0.43022230     1.90983238
      6      H     0.43889576    -1.34108567     1.36617832
      7      N    -0.62319364    -1.20424537    -1.05117486
      8      O    -1.26339194    -0.93697844    -2.08807959
      9      O    -0.13280314    -2.30883720    -0.78688829
     10      N    -0.91507376     1.12222676    -0.56387457
     11      H    -1.52145303     1.04333493    -1.37473100
     12      H    -1.14411600     1.85880809     0.08826717

Total System Charge              0.00000

 *** GO1_GOStep19 ***

 Energy gradients wrt nuclear displacements
 ==========================================

     Atom      Cartesian (a.u./angstrom)
                 X         Y         Z
 ----------------------------------------
     1 C    -0.006932  0.007095 -0.006895
     2 C     0.008277  0.001526  0.011643
     3 H     0.005029 -0.002208 -0.001360
     4 H     0.000105  0.001125 -0.002469
     5 H    -0.002178 -0.001609  0.002267
     6 H    -0.000009 -0.000046  0.000201
     7 N    -0.002296 -0.004068 -0.005786
     8 O     0.001335 -0.000062  0.001993
     9 O    -0.001054 -0.000646 -0.001328
    10 N    -0.001574 -0.001214  0.005683
    11 H    -0.000103  0.001807  0.000876
    12 H    -0.000600 -0.001701 -0.004824
 ----------------------------------------

 dE(predicted):    -0.77876E-03, dE(actual):    -0.96483E-03, Trust radius:    0.301897, all in a.u.
 
----------------------------------------------------------------------
Geometry Convergence after Step  19       (Hartree/Angstrom,Angstrom)
----------------------------------------------------------------------
current energy                               -2.34193170 Hartree
energy change                      -0.00096483     0.00012000    F
constrained gradient max            0.01165599     0.00010000    F
constrained gradient rms            0.00385622     0.00006667    F
gradient max                        0.01165599
gradient rms                        0.00385622
cart. step max                      0.05977441     0.01000000    F
cart. step rms                      0.01912730     0.00666667    F
 

--------
Geometry
--------
Formula: C2H6N2O2
Atoms
  Index Symbol   x (angstrom)   y (angstrom)   z (angstrom)
      1      C    -0.45703277    -0.06728597    -0.05598667
      2      C     0.10087230    -0.34256775     1.13068938
      3      H    -2.70196589     1.13135960     1.55148038
      4      H    -2.47025469     0.55633343     1.97566571
      5      H     0.20607742     0.42563487     1.89011056
      6      H     0.44065023    -1.34748240     1.34331655
      7      N    -0.61543852    -1.20733975    -1.04883935
      8      O    -1.27190416    -0.95418070    -2.07979719
      9      O    -0.10356968    -2.30149825    -0.78509390
     10      N    -0.90685048     1.12085907    -0.56804025
     11      H    -1.53608123     1.04289791    -1.36160890
     12      H    -1.09297873     1.86066344     0.10043630

Total System Charge              0.00000

 *** GO1_GOStep20 ***

 Energy gradients wrt nuclear displacements
 ==========================================

     Atom      Cartesian (a.u./angstrom)
                 X         Y         Z
 ----------------------------------------
     1 C    -0.001352  0.007726  0.007630
     2 C    -0.000963  0.003137 -0.007060
     3 H     0.001890  0.003829 -0.005102
     4 H     0.002156 -0.004629  0.002059
     5 H    -0.001222 -0.000993  0.001215
     6 H    -0.000439 -0.000539 -0.000328
     7 N    -0.000874 -0.004242 -0.002836
     8 O     0.001118 -0.000435  0.000982
     9 O    -0.000575  0.002023  0.000225
    10 N    -0.001557 -0.006682  0.000529
    11 H     0.000570 -0.000604 -0.000364
    12 H     0.001246  0.001410  0.003051
 ----------------------------------------

 dE(predicted):    -0.42936E-03, dE(actual):    -0.47128E-03, Trust radius:    0.603795, all in a.u.
 
----------------------------------------------------------------------
Geometry Convergence after Step  20       (Hartree/Angstrom,Angstrom)
----------------------------------------------------------------------
current energy                               -2.34240298 Hartree
energy change                      -0.00047128     0.00012000    F
constrained gradient max            0.00773037     0.00010000    F
constrained gradient rms            0.00313645     0.00006667    F
gradient max                        0.00773037
gradient rms                        0.00313645
cart. step max                      0.07028208     0.01000000    F
cart. step rms                      0.01916165     0.00666667    F
 

--------
Geometry
--------
Formula: C2H6N2O2
Atoms
  Index Symbol   x (angstrom)   y (angstrom)   z (angstrom)
      1      C    -0.44049495    -0.07352978    -0.05838969
      2      C     0.11311945    -0.35161240     1.12290805
      3      H    -2.75134776     1.14656175     1.56976334
      4      H    -2.54053677     0.57296185     2.00091869
      5      H     0.24303724     0.42356355     1.87166374
      6      H     0.44950865    -1.35778644     1.33430422
      7      N    -0.60930218    -1.20869455    -1.04923648
      8      O    -1.28705552    -0.95647316    -2.06799090
      9      O    -0.08628186    -2.30074138    -0.79542416
     10      N    -0.88603831     1.11621857    -0.56861456
     11      H    -1.52903217     1.04505882    -1.35172503
     12      H    -1.08405203     1.86186669     0.08415542

Total System Charge              0.00000

 *** GO1_GOStep21 ***

 Energy gradients wrt nuclear displacements
 ==========================================

     Atom      Cartesian (a.u./angstrom)
                 X         Y         Z
 ----------------------------------------
     1 C     0.004908  0.004275  0.013847
     2 C    -0.007922  0.003855 -0.016040
     3 H     0.002482  0.000933 -0.002445
     4 H     0.000438 -0.001504  0.000168
     5 H     0.000100  0.000058  0.000141
     6 H    -0.000502 -0.000544 -0.000944
     7 N     0.001054 -0.002086 -0.000705
     8 O    -0.000737  0.001348 -0.000294
     9 O     0.000132  0.001275  0.001579
    10 N     0.002144 -0.009597  0.008742
    11 H    -0.001197  0.002769  0.001254
    12 H    -0.000901 -0.000781 -0.005305
 ----------------------------------------

 dE(predicted):    -0.24664E-03, dE(actual):    -0.23973E-03, Trust radius:    0.603795, all in a.u.
 
----------------------------------------------------------------------
Geometry Convergence after Step  21       (Hartree/Angstrom,Angstrom)
----------------------------------------------------------------------
current energy                               -2.34264271 Hartree
energy change                      -0.00023973     0.00012000    F
constrained gradient max            0.01601380     0.00010000    F
constrained gradient rms            0.00474884     0.00006667    F
gradient max                        0.01601380
gradient rms                        0.00474884
cart. step max                      0.10493389     0.01000000    F
cart. step rms                      0.02966543     0.00666667    F
 

--------
Geometry
--------
Formula: C2H6N2O2
Atoms
  Index Symbol   x (angstrom)   y (angstrom)   z (angstrom)
      1      C    -0.41766766    -0.08205637    -0.06604739
      2      C     0.14431880    -0.35108641     1.11865773
      3      H    -2.82529428     1.15367076     1.56906876
      4      H    -2.64547065     0.57339596     2.00348223
      5      H     0.27881155     0.43806653     1.85132887
      6      H     0.49315387    -1.35113147     1.33594332
      7      N    -0.61647765    -1.21141200    -1.05020431
      8      O    -1.32963457    -0.95377439    -2.04387729
      9      O    -0.08577581    -2.30565407    -0.81763858
     10      N    -0.85964774     1.11160755    -0.57362265
     11      H    -1.53315102     1.04037094    -1.32984183
     12      H    -1.01164103     1.85539647     0.09508379

Total System Charge              0.00000

 *** GO1_GOStep22 ***

 Energy gradients wrt nuclear displacements
 ==========================================

     Atom      Cartesian (a.u./angstrom)
                 X         Y         Z
 ----------------------------------------
     1 C     0.003541  0.003444  0.006780
     2 C    -0.005250  0.003122 -0.005705
     3 H     0.002136  0.000050 -0.001099
     4 H    -0.000398 -0.000276 -0.000408
     5 H    -0.000012  0.000531 -0.001107
     6 H    -0.000089  0.000352 -0.001365
     7 N    -0.000098  0.000137 -0.001495
     8 O    -0.001201  0.003007  0.000162
     9 O     0.000777 -0.000189  0.001394
    10 N    -0.001217 -0.008871  0.002885
    11 H     0.000443  0.000411  0.000951
    12 H     0.001367 -0.001718 -0.000993
 ----------------------------------------

 dE(predicted):    -0.25810E-03, dE(actual):    -0.25994E-03, Trust radius:    0.603795, all in a.u.
 
----------------------------------------------------------------------
Geometry Convergence after Step  22       (Hartree/Angstrom,Angstrom)
----------------------------------------------------------------------
current energy                               -2.34290265 Hartree
energy change                      -0.00025994     0.00012000    F
constrained gradient max            0.00885690     0.00010000    F
constrained gradient rms            0.00269139     0.00006667    F
gradient max                        0.00885690
gradient rms                        0.00269139
cart. step max                      0.05895577     0.01000000    F
cart. step rms                      0.01602398     0.00666667    F
 

--------
Geometry
--------
Formula: C2H6N2O2
Atoms
  Index Symbol   x (angstrom)   y (angstrom)   z (angstrom)
      1      C    -0.41219897    -0.08404494    -0.07331653
      2      C     0.15987970    -0.35967902     1.11249657
      3      H    -2.86443515     1.17076005     1.58345277
      4      H    -2.70442642     0.58154331     2.01197112
      5      H     0.30598806     0.42956266     1.84297980
      6      H     0.50536558    -1.36125870     1.32860890
      7      N    -0.61256844    -1.21595386    -1.05098110
      8      O    -1.34135028    -0.97054415    -2.03651888
      9      O    -0.06675223    -2.30362299    -0.82043497
     10      N    -0.84935578     1.11753053    -0.57797405
     11      H    -1.54082882     1.04780517    -1.31854003
     12      H    -0.98779346     1.86529545     0.09058902

Total System Charge              0.00000

 *** GO1_GOStep23 ***

 Energy gradients wrt nuclear displacements
 ==========================================

     Atom      Cartesian (a.u./angstrom)
                 X         Y         Z
 ----------------------------------------
     1 C    -0.002120  0.002813 -0.004539
     2 C    -0.000026 -0.001790  0.004082
     3 H     0.002059 -0.000809 -0.000187
     4 H    -0.000822  0.000700 -0.000925
     5 H     0.000607  0.000530 -0.001231
     6 H     0.000015  0.000035 -0.000502
     7 N     0.000973 -0.000426 -0.000942
     8 O    -0.001339  0.001748 -0.000338
     9 O     0.001323 -0.000030  0.002158
    10 N    -0.001755 -0.003189  0.002477
    11 H     0.000102  0.000351  0.001081
    12 H     0.000985  0.000067 -0.001134
 ----------------------------------------
 Rebuilding optimization coordinates

 dE(predicted):    -0.12719E-03, dE(actual):    -0.90524E-04, Trust radius:    0.603795, all in a.u.
 
----------------------------------------------------------------------
Geometry Convergence after Step  23       (Hartree/Angstrom,Angstrom)
----------------------------------------------------------------------
current energy                               -2.34299317 Hartree
energy change                      -0.00009052     0.00012000    T
constrained gradient max            0.00452126     0.00010000    F
constrained gradient rms            0.00165417     0.00006667    F
gradient max                        0.00452126
gradient rms                        0.00165417
cart. step max                      0.03522657     0.01000000    F
cart. step rms                      0.01008504     0.00666667    F
 

--------
Geometry
--------
Formula: C2H6N2O2
Atoms
  Index Symbol   x (angstrom)   y (angstrom)   z (angstrom)
      1      C    -0.40253586    -0.08600861    -0.07500219
      2      C     0.17383554    -0.35831205     1.10857229
      3      H    -2.89262939     1.16948156     1.58537447
      4      H    -2.73965299     0.57933296     2.01429980
      5      H     0.32239855     0.43200189     1.83767899
      6      H     0.52148740    -1.35869093     1.32693901
      7      N    -0.61762686    -1.21698929    -1.04946125
      8      O    -1.35277534    -0.97151405    -2.03015439
      9      O    -0.07605648    -2.30757724    -0.82348939
     10      N    -0.83593080     1.11957949    -0.57872382
     11      H    -1.53333689     1.04829309    -1.31432273
     12      H    -0.97565309     1.86779669     0.09062186

Total System Charge              0.00000

 *** GO1_GOStep24 ***

 Energy gradients wrt nuclear displacements
 ==========================================

     Atom      Cartesian (a.u./angstrom)
                 X         Y         Z
 ----------------------------------------
     1 C    -0.000309 -0.001084 -0.003732
     2 C    -0.000896 -0.000114  0.002943
     3 H     0.001972 -0.001289  0.000327
     4 H    -0.000996  0.001218 -0.001207
     5 H     0.000467  0.000386 -0.000708
     6 H     0.000404  0.000326 -0.000478
     7 N     0.000316  0.000932  0.000102
     8 O    -0.000916  0.000139 -0.000777
     9 O     0.000466  0.000175  0.000724
    10 N    -0.000725 -0.002257  0.002678
    11 H    -0.000177  0.000040  0.000787
    12 H     0.000393  0.001526 -0.000659
 ----------------------------------------

 dE(predicted):    -0.39218E-04, dE(actual):    -0.43196E-04, Trust radius:    0.603795, all in a.u.
 
----------------------------------------------------------------------
Geometry Convergence after Step  24       (Hartree/Angstrom,Angstrom)
----------------------------------------------------------------------
current energy                               -2.34303637 Hartree
energy change                      -0.00004320     0.00012000    T
constrained gradient max            0.00371293     0.00010000    F
constrained gradient rms            0.00123745     0.00006667    F
gradient max                        0.00371293
gradient rms                        0.00123745
cart. step max                      0.01254932     0.01000000    F
cart. step rms                      0.00361589     0.00666667    T
 

--------
Geometry
--------
Formula: C2H6N2O2
Atoms
  Index Symbol   x (angstrom)   y (angstrom)   z (angstrom)
      1      C    -0.39919030    -0.08475562    -0.07587012
      2      C     0.17924942    -0.35835445     1.10566234
      3      H    -2.90328809     1.17000605     1.58757573
      4      H    -2.75220231     0.57966761     2.01824851
      5      H     0.32889118     0.42998270     1.83675158
      6      H     0.52496785    -1.35964322     1.32350094
      7      N    -0.61735466    -1.21723163    -1.04796481
      8      O    -1.35294160    -0.97110335    -2.02787666
      9      O    -0.07884611    -2.30924939    -0.82119971
     10      N    -0.83305563     1.12109368    -0.58092839
     11      H    -1.53265304     1.04910330    -1.31465841
     12      H    -0.97205292     1.86787784     0.08909164

Total System Charge              0.00000

 *** GO1_GOStep25 ***

 Energy gradients wrt nuclear displacements
 ==========================================

     Atom      Cartesian (a.u./angstrom)
                 X         Y         Z
 ----------------------------------------
     1 C     0.000305 -0.001137 -0.002426
     2 C    -0.001143 -0.000381  0.001457
     3 H     0.001690 -0.000511 -0.000178
     4 H    -0.000814  0.000452 -0.000611
     5 H     0.000382  0.000241 -0.000524
     6 H     0.000449  0.000229 -0.000269
     7 N     0.000390  0.000906  0.000339
     8 O    -0.000614  0.000275 -0.000230
     9 O     0.000412 -0.000097  0.000642
    10 N    -0.001300 -0.000577  0.002610
    11 H    -0.000399  0.000147  0.000489
    12 H     0.000641  0.000453 -0.001300
 ----------------------------------------

 dE(predicted):    -0.15243E-04, dE(actual):    -0.26052E-04, Trust radius:    0.603795, all in a.u.
 
----------------------------------------------------------------------
Geometry Convergence after Step  25       (Hartree/Angstrom,Angstrom)
----------------------------------------------------------------------
current energy                               -2.34306242 Hartree
energy change                      -0.00002605     0.00012000    T
constrained gradient max            0.00264212     0.00010000    F
constrained gradient rms            0.00090831     0.00006667    F
gradient max                        0.00264212
gradient rms                        0.00090831
cart. step max                      0.04737540     0.01000000    F
cart. step rms                      0.01434310     0.00666667    F
 

--------
Geometry
--------
Formula: C2H6N2O2
Atoms
  Index Symbol   x (angstrom)   y (angstrom)   z (angstrom)
      1      C    -0.38655986    -0.08220001    -0.07861676
      2      C     0.20147514    -0.35577483     1.09598936
      3      H    -2.94758059     1.16748724     1.59582303
      4      H    -2.79957772     0.57923008     2.03208836
      5      H     0.35838292     0.42777905     1.83116095
      6      H     0.53853579    -1.36028721     1.31466110
      7      N    -0.62086009    -1.21889156    -1.04385294
      8      O    -1.35685617    -0.96950914    -2.02172738
      9      O    -0.09478602    -2.31645960    -0.81551948
     10      N    -0.81634417     1.12602553    -0.58713282
     11      H    -1.52120246     1.05095657    -1.31644182
     12      H    -0.96310299     1.86903739     0.08590104

Total System Charge              0.00000

 *** GO1_GOStep26 ***

 Energy gradients wrt nuclear displacements
 ==========================================

     Atom      Cartesian (a.u./angstrom)
                 X         Y         Z
 ----------------------------------------
     1 C     0.001622 -0.002401  0.000654
     2 C    -0.001824  0.001012 -0.002726
     3 H     0.001157  0.000467 -0.000718
     4 H    -0.000647 -0.000527  0.000239
     5 H     0.000163 -0.000249  0.000578
     6 H     0.000592 -0.000009  0.000154
     7 N    -0.000107  0.000728  0.000761
     8 O     0.000479 -0.000273  0.000831
     9 O    -0.000190 -0.000349 -0.000387
    10 N    -0.000642  0.000948  0.001918
    11 H    -0.000915  0.000267  0.000059
    12 H     0.000312  0.000386 -0.001362
 ----------------------------------------

 dE(predicted):    -0.47246E-04, dE(actual):    -0.58509E-04, Trust radius:    0.603795, all in a.u.
 
----------------------------------------------------------------------
Geometry Convergence after Step  26       (Hartree/Angstrom,Angstrom)
----------------------------------------------------------------------
current energy                               -2.34312093 Hartree
energy change                      -0.00005851     0.00012000    T
constrained gradient max            0.00268693     0.00010000    F
constrained gradient rms            0.00098012     0.00006667    F
gradient max                        0.00268693
gradient rms                        0.00098012
cart. step max                      0.02030987     0.01000000    F
cart. step rms                      0.00668006     0.00666667    F
 

--------
Geometry
--------
Formula: C2H6N2O2
Atoms
  Index Symbol   x (angstrom)   y (angstrom)   z (angstrom)
      1      C    -0.38119250    -0.07985689    -0.07964529
      2      C     0.21116436    -0.35403936     1.09245289
      3      H    -2.96789045     1.16339922     1.60105676
      4      H    -2.81513230     0.57789623     2.03951635
      5      H     0.37460548     0.42872273     1.82702402
      6      H     0.54021673    -1.36110876     1.31211594
      7      N    -0.62330809    -1.21885255    -1.04201800
      8      O    -1.35649944    -0.96733613    -2.02135662
      9      O    -0.10564177    -2.31943767    -0.81010639
     10      N    -0.80795601     1.12910486    -0.59037585
     11      H    -1.51061448     1.05169184    -1.32176509
     12      H    -0.96622775     1.86720999     0.08543391

Total System Charge              0.00000

 *** GO1_GOStep27 ***

 Energy gradients wrt nuclear displacements
 ==========================================

     Atom      Cartesian (a.u./angstrom)
                 X         Y         Z
 ----------------------------------------
     1 C     0.001572 -0.001945  0.001383
     2 C    -0.001378  0.001267 -0.003010
     3 H     0.001029  0.000516 -0.000718
     4 H    -0.000691 -0.000595  0.000352
     5 H     0.000022 -0.000415  0.000767
     6 H     0.000501 -0.000157  0.000181
     7 N    -0.000127  0.000378  0.000624
     8 O     0.000599 -0.000425  0.000911
     9 O    -0.000416 -0.000211 -0.000559
    10 N    -0.000392  0.001321  0.001389
    11 H    -0.000916  0.000324  0.000123
    12 H     0.000196 -0.000056 -0.001444
 ----------------------------------------

 dE(predicted):    -0.18468E-04, dE(actual):    -0.34374E-04, Trust radius:    0.603795, all in a.u.
 
----------------------------------------------------------------------
Geometry Convergence after Step  27       (Hartree/Angstrom,Angstrom)
----------------------------------------------------------------------
current energy                               -2.34315530 Hartree
energy change                      -0.00003437     0.00012000    T
constrained gradient max            0.00297717     0.00010000    F
constrained gradient rms            0.00097036     0.00006667    F
gradient max                        0.00297717
gradient rms                        0.00097036
cart. step max                      0.03073111     0.01000000    F
cart. step rms                      0.01329593     0.00666667    F
 

--------
Geometry
--------
Formula: C2H6N2O2
Atoms
  Index Symbol   x (angstrom)   y (angstrom)   z (angstrom)
      1      C    -0.37478687    -0.07402733    -0.08043016
      2      C     0.22341813    -0.34993460     1.08852554
      3      H    -2.99795303     1.14898458     1.61249822
      4      H    -2.82140261     0.57303094     2.05436450
      5      H     0.40508960     0.43469587     1.81649569
      6      H     0.53139003    -1.36270812     1.31248507
      7      N    -0.62935176    -1.21751075    -1.03857105
      8      O    -1.34894432    -0.95965644    -2.02644952
      9      O    -0.13176218    -2.32448509    -0.79545807
     10      N    -0.79368733     1.13628835    -0.59580701
     11      H    -1.47988337     1.05307400    -1.34236244
     12      H    -0.99060250     1.85964209     0.08704187

Total System Charge              0.00000

 *** GO1_GOStep28 ***

 Energy gradients wrt nuclear displacements
 ==========================================

     Atom      Cartesian (a.u./angstrom)
                 X         Y         Z
 ----------------------------------------
     1 C     0.000755 -0.000035  0.002172
     2 C    -0.000069  0.001136 -0.001998
     3 H     0.000935  0.000271 -0.000565
     4 H    -0.000824 -0.000457  0.000340
     5 H    -0.000172 -0.000493  0.000535
     6 H     0.000151 -0.000386 -0.000037
     7 N    -0.000079 -0.000762 -0.000039
     8 O     0.000455 -0.000176  0.000797
     9 O    -0.000520  0.000049 -0.000429
    10 N     0.000330  0.000755 -0.000489
    11 H    -0.000744  0.000289  0.000267
    12 H    -0.000216 -0.000190 -0.000555
 ----------------------------------------

 dE(predicted):    -0.43803E-04, dE(actual):    -0.69492E-04, Trust radius:    0.603795, all in a.u.
 
----------------------------------------------------------------------
Geometry Convergence after Step  28       (Hartree/Angstrom,Angstrom)
----------------------------------------------------------------------
current energy                               -2.34322479 Hartree
energy change                      -0.00006949     0.00012000    T
constrained gradient max            0.00218269     0.00010000    F
constrained gradient rms            0.00069717     0.00006667    F
gradient max                        0.00218269
gradient rms                        0.00069717
cart. step max                      0.02979436     0.01000000    F
cart. step rms                      0.01037454     0.00666667    F
 

--------
Geometry
--------
Formula: C2H6N2O2
Atoms
  Index Symbol   x (angstrom)   y (angstrom)   z (angstrom)
      1      C    -0.37680429    -0.07064287    -0.07965513
      2      C     0.22099790    -0.34746272     1.08991940
      3      H    -3.00044098     1.13699039     1.61956095
      4      H    -2.79824042     0.56951235     2.06100904
      5      H     0.41587342     0.44138371     1.80966522
      6      H     0.51510662    -1.36287385     1.31928176
      7      N    -0.63324855    -1.21562382    -1.03773495
      8      O    -1.33872275    -0.95419145    -2.03511694
      9      O    -0.14685746    -2.32550097    -0.78638717
     10      N    -0.79033133     1.14042029    -0.59665060
     11      H    -1.45541152     1.05483424    -1.36186873
     12      H    -1.02039686     1.85054820     0.09030979

Total System Charge              0.00000

 *** GO1_GOStep29 ***

 Energy gradients wrt nuclear displacements
 ==========================================

     Atom      Cartesian (a.u./angstrom)
                 X         Y         Z
 ----------------------------------------
     1 C    -0.000190  0.001663  0.002037
     2 C     0.000714  0.000428 -0.000378
     3 H     0.001009  0.000033 -0.000477
     4 H    -0.000873 -0.000330  0.000293
     5 H    -0.000051 -0.000279 -0.000012
     6 H    -0.000083 -0.000326 -0.000247
     7 N    -0.000112 -0.001195 -0.000428
     8 O     0.000193 -0.000113  0.000375
     9 O    -0.000421  0.000311 -0.000228
    10 N     0.000526  0.000178 -0.001359
    11 H    -0.000403  0.000192  0.000305
    12 H    -0.000309 -0.000562  0.000118
 ----------------------------------------

 dE(predicted):    -0.24172E-04, dE(actual):    -0.31441E-04, Trust radius:    0.603795, all in a.u.
 
----------------------------------------------------------------------
Geometry Convergence after Step  29       (Hartree/Angstrom,Angstrom)
----------------------------------------------------------------------
current energy                               -2.34325624 Hartree
energy change                      -0.00003144     0.00012000    T
constrained gradient max            0.00204743     0.00010000    F
constrained gradient rms            0.00065067     0.00006667    F
gradient max                        0.00204743
gradient rms                        0.00065067
cart. step max                      0.03193293     0.01000000    F
cart. step rms                      0.00888203     0.00666667    F
 

--------
Geometry
--------
Formula: C2H6N2O2
Atoms
  Index Symbol   x (angstrom)   y (angstrom)   z (angstrom)
      1      C    -0.38273975    -0.07053431    -0.07831741
      2      C     0.21113470    -0.34714737     1.09371818
      3      H    -2.98744805     1.13112843     1.62257237
      4      H    -2.76630748     0.56913845     2.06111667
      5      H     0.41192357     0.44581024     1.80733755
      6      H     0.50022208    -1.36249757     1.32828726
      7      N    -0.63425794    -1.21420875    -1.03891853
      8      O    -1.33089184    -0.95096750    -2.04230413
      9      O    -0.14938408    -2.32428239    -0.78505607
     10      N    -0.79429780     1.14104410    -0.59454814
     11      H    -1.44203542     1.05539029    -1.37449290
     12      H    -1.04439421     1.84451987     0.09293779

Total System Charge              0.00000

 *** GO1_GOStep30 ***

 Energy gradients wrt nuclear displacements
 ==========================================

     Atom      Cartesian (a.u./angstrom)
                 X         Y         Z
 ----------------------------------------
     1 C    -0.000675  0.001865  0.001485
     2 C     0.000661 -0.000291  0.000453
     3 H     0.001282 -0.000478 -0.000172
     4 H    -0.001046  0.000103 -0.000028
     5 H     0.000256  0.000021 -0.000388
     6 H    -0.000137 -0.000077 -0.000222
     7 N    -0.000239 -0.000984 -0.000501
     8 O    -0.000013  0.000103  0.000081
     9 O    -0.000068  0.000243  0.000004
    10 N     0.000571 -0.000382 -0.001593
    11 H    -0.000137  0.000066  0.000166
    12 H    -0.000456 -0.000189  0.000715
 ----------------------------------------

 dE(predicted):    -0.13563E-04, dE(actual):    -0.13402E-04, Trust radius:    0.603795, all in a.u.
 
----------------------------------------------------------------------
Geometry Convergence after Step  30       (Hartree/Angstrom,Angstrom)
----------------------------------------------------------------------
current energy                               -2.34326964 Hartree
energy change                      -0.00001340     0.00012000    T
constrained gradient max            0.00186156     0.00010000    F
constrained gradient rms            0.00065226     0.00006667    F
gradient max                        0.00186156
gradient rms                        0.00065226
cart. step max                      0.02705011     0.01000000    F
cart. step rms                      0.00707810     0.00666667    F
 

--------
Geometry
--------
Formula: C2H6N2O2
Atoms
  Index Symbol   x (angstrom)   y (angstrom)   z (angstrom)
      1      C    -0.38865411    -0.07192303    -0.07755111
      2      C     0.20096048    -0.34771004     1.09704551
      3      H    -2.97077758     1.13082153     1.62303426
      4      H    -2.73925737     0.57067030     2.05835084
      5      H     0.40051646     0.44723161     1.80895655
      6      H     0.49102402    -1.36184781     1.33488996
      7      N    -0.63301126    -1.21349625    -1.04105684
      8      O    -1.32513226    -0.95035415    -2.04775946
      9      O    -0.14579798    -2.32267143    -0.78708857
     10      N    -0.80131685     1.13960685    -0.59156283
     11      H    -1.43937037     1.05526028    -1.37949293
     12      H    -1.05765939     1.84180564     0.09456725

Total System Charge              0.00000

 *** GO1_GOStep31 ***

 Energy gradients wrt nuclear displacements
 ==========================================

     Atom      Cartesian (a.u./angstrom)
                 X         Y         Z
 ----------------------------------------
     1 C    -0.000851  0.001405  0.000711
     2 C     0.000354 -0.000491  0.000501
     3 H     0.001423 -0.000629 -0.000123
     4 H    -0.001115  0.000232 -0.000126
     5 H     0.000498  0.000159 -0.000453
[...]
                                   -3.37%     2 S               2.394  0.00     4 H
                                    2.74%     1 P:y            -7.062  1.00    10 N
                                    2.45%     2 S             -18.450  2.00    10 N
                                   -2.39%     2 P:y             4.589  0.00     1 C
                                   -2.12%     3 S              10.158  0.00     2 C
                                   -1.45%     1 S              -6.532  1.00     4 H
                                   -1.44%     1 P:y            -5.239  0.67     1 C
                                    1.23%     1 P:x            -9.020  1.33    12 O
                                    1.15%     1 P:x            -9.020  1.33    11 O
                                    1.09%     1 P:y            11.051  0.00     8 H
                                   -1.05%     1 S              -6.532  1.00     5 H
                                    1.01%     1 P:z            -5.239  0.67     2 C
      -0.403  0.00    27 A         26.28%     1 P:x            -5.239  0.67     1 C
                                   15.03%     2 S               2.394  0.00     8 H
                                   12.11%     1 P:x            -5.239  0.67     2 C
                                   -9.78%     2 S               2.394  0.00     4 H
                                    7.60%     2 S               2.394  0.00     3 H
                                    6.75%     1 S              -6.532  1.00     8 H
                                    6.35%     2 S               2.394  0.00     7 H
                                    6.28%     1 S              -6.532  1.00     3 H
                                    4.79%     1 P:x            -7.062  1.00    10 N
                                    3.59%     1 S              -6.532  1.00     4 H
                                    3.58%     1 P:x            -7.062  1.00     9 N
                                   -3.16%     2 P:x             4.589  0.00     1 C
                                   -3.13%     2 P:y             4.589  0.00     1 C
                                    2.31%     1 P:z            -5.239  0.67     2 C
                                    2.26%     1 S              -6.532  1.00     7 H
                                    2.10%     2 S               2.394  0.00     5 H
                                    2.08%     1 P:z            -7.062  1.00     9 N
                                    2.07%     1 P:z            -5.239  0.67     1 C
                                    1.86%     1 P:y            -5.239  0.67     2 C
                                    1.68%     1 P:x            -9.020  1.33    12 O
                                   -1.41%     2 P:x             7.649  0.00    10 N
                                    1.31%     1 P:x            -9.020  1.33    11 O
                                    1.27%     2 P:y             4.589  0.00     2 C
       0.020  0.00    28 A         29.81%     1 S              -6.532  1.00     4 H
                                   29.15%     1 S              -6.532  1.00     3 H
                                   20.91%     2 S               2.394  0.00     6 H
                                   13.10%     2 S               2.394  0.00     5 H
                                   11.04%     1 S              -6.532  1.00     6 H
                                   -6.61%     2 S               2.394  0.00     3 H
                                    4.77%     1 S              -6.532  1.00     5 H
                                   -3.84%     2 S               2.394  0.00     8 H
                                   -3.64%     2 P:z             4.589  0.00     2 C
                                    3.23%     1 S              -6.532  1.00     7 H
                                    2.67%     2 S               2.394  0.00     7 H
                                    2.36%     1 P:y            11.051  0.00     3 H
                                   -2.14%     2 P:y             7.649  0.00    10 N
                                   -2.07%     2 S               2.394  0.00     4 H
                                    2.06%     1 P:y            11.051  0.00     4 H
                                   -2.01%     2 P:z             4.589  0.00     1 C
                                    1.76%     1 S              -6.532  1.00     8 H
                                    1.32%     1 P:x            -5.239  0.67     1 C
                                   -1.31%     1 P:z            -5.239  0.67     1 C
                                   -1.30%     3 S              10.158  0.00     2 C
                                    1.25%     1 P:z            -5.239  0.67     2 C
                                   -1.12%     2 P:y             4.589  0.00     2 C
       0.323  0.00    29 A         41.97%     1 S              -6.532  1.00     5 H
                                   30.55%     2 S               2.394  0.00     5 H
                                   27.52%     1 S              -6.532  1.00     7 H
                                  -17.47%     2 P:y             4.589  0.00     2 C
                                   15.86%     2 S               2.394  0.00     7 H
                                   -8.45%     2 P:z             4.589  0.00     2 C
                                   -8.24%     2 P:z             7.649  0.00    10 N
                                    7.80%     2 P:y             4.589  0.00     1 C
                                   -6.48%     2 S               2.394  0.00     6 H
                                    5.03%     2 S             -18.450  2.00     9 N
                                    3.70%     1 S              -6.532  1.00     8 H
                                   -3.39%     2 P:z             4.589  0.00     1 C
                                    2.51%     2 S               2.394  0.00     3 H
                                    2.30%     1 P:y            -5.239  0.67     2 C
                                   -2.02%     2 S               2.394  0.00     4 H
                                   -1.66%     2 P:x             4.589  0.00     1 C
                                    1.62%     1 S              -6.532  1.00     6 H
                                    1.62%     1 P:z            -9.020  1.33    11 O
                                   -1.40%     2 P:x             7.649  0.00    10 N
                                   -1.27%     3 S              10.158  0.00     2 C
                                   -1.25%     1 P:y            -5.239  0.67     1 C
                                    1.23%     2 S             -13.620  2.00     1 C
                                   -1.00%     3 S              21.524  0.00    11 O
       0.892  0.00    30 A         29.33%     2 S               2.394  0.00     6 H
                                   25.72%     1 S              -6.532  1.00     6 H
                                   24.30%     1 S              -6.532  1.00     3 H
                                  -19.75%     2 S               2.394  0.00     4 H
                                   13.80%     2 S               2.394  0.00     3 H
                                   13.70%     1 S              -6.532  1.00     8 H
                                   12.42%     1 S              -6.532  1.00     4 H
                                   -6.80%     2 P:y             4.589  0.00     2 C
                                    4.22%     2 S               2.394  0.00     5 H
                                   -3.92%     2 P:x             4.589  0.00     2 C
                                   -2.77%     2 P:y             4.589  0.00     1 C
                                    2.57%     2 S             -18.450  2.00     9 N
                                   -2.44%     2 P:y             7.649  0.00    10 N
                                   -2.04%     3 S              10.158  0.00     2 C
                                   -1.76%     1 P:z            -5.239  0.67     1 C
                                    1.45%     2 P:y             7.649  0.00     9 N
                                    1.37%     2 S               2.394  0.00     7 H
                                    1.31%     1 P:x            -5.239  0.67     2 C
                                    1.28%     2 S               2.394  0.00     8 H
                                    1.28%     2 S             -13.620  2.00     2 C
                                   -1.17%     3 S              21.524  0.00    12 O
                                   -1.12%     2 P:x             4.589  0.00     1 C
                                   -1.11%     2 P:z             4.589  0.00     2 C
       1.583  0.00    31 A         24.38%     1 S              -6.532  1.00     6 H
                                   21.78%     1 S              -6.532  1.00     8 H
                                   16.71%     1 S              -6.532  1.00     7 H
                                  -15.76%     2 P:y             4.589  0.00     2 C
                                   13.83%     2 S               2.394  0.00     7 H
                                   12.41%     2 S               2.394  0.00     3 H
                                   11.44%     1 S              -6.532  1.00     5 H
                                   -9.63%     2 P:z             7.649  0.00    10 N
                                   -9.47%     2 S               2.394  0.00     8 H
                                    8.87%     2 S               2.394  0.00     6 H
                                    7.06%     2 S               2.394  0.00     4 H
                                    6.15%     1 P:y            -5.239  0.67     2 C
                                    4.08%     1 P:z            -7.062  1.00    10 N
                                    3.69%     3 S              40.869  0.00     8 H
                                   -2.08%     2 P:y             7.649  0.00    10 N
                                   -2.08%     2 P:x             4.589  0.00     2 C
                                    2.07%     1 S              -6.532  1.00     3 H
                                    1.09%     1 P:z            11.051  0.00     3 H

 Energy gradients wrt nuclear displacements
 ==========================================

     Atom      Cartesian (a.u./angstrom)
                 X         Y         Z
 ----------------------------------------
     1 C     0.000095  0.000027  0.000070
     2 C    -0.000018 -0.000041 -0.000098
     3 H     0.000085 -0.000033 -0.000035
     4 H    -0.000078 -0.000001  0.000106
     5 H     0.000012  0.000061 -0.000024
     6 H     0.000041  0.000072 -0.000011
     7 N     0.000019 -0.000060 -0.000051
     8 O    -0.000001 -0.000021  0.000038
     9 O     0.000026  0.000023  0.000030
    10 N    -0.000102  0.000032 -0.000010
    11 H    -0.000015 -0.000055 -0.000029
    12 H    -0.000065 -0.000005  0.000015
 ----------------------------------------



 =======================================================================
 Electrostatic potential at the Nuclei due to electrons and other nuclei
 =======================================================================
  
         Atom                  Potential
         ----                  ---------
     1)   C                  14.68613780
     2)   C                  14.77337252
     3)   H                   1.08974403
     4)   H                   1.08826698
     5)   H                   1.07422745
     6)   H                   1.08084446
     7)   N                  18.18472235
     8)   O                  22.36139336
     9)   O                  22.36353089
    10)   N                  18.37756294
    11)   H                   1.00545386
    12)   H                   0.99959297
 Mulliken charges used for AMS results%charges...


    =====================
     CALCULATION RESULTS
    =====================

Energy (hartree)            -2.34360800

Gradients (hartree/bohr)
  Index   Atom            d/dx            d/dy            d/dz
      1      C    0.0000504583    0.0000141714    0.0000371612
      2      C   -0.0000094715   -0.0000216556   -0.0000520894
      3      H    0.0000450627   -0.0000172856   -0.0000187660
      4      H   -0.0000410535   -0.0000004404    0.0000562421
      5      H    0.0000063318    0.0000323668   -0.0000125796
      6      H    0.0000219523    0.0000378752   -0.0000055974
      7      N    0.0000100994   -0.0000315329   -0.0000267593
      8      O   -0.0000007307   -0.0000109322    0.0000199918
      9      O    0.0000135582    0.0000120487    0.0000157098
     10      N   -0.0000538056    0.0000168065   -0.0000055063
     11      H   -0.0000080001   -0.0000290057   -0.0000155781
     12      H   -0.0000344013   -0.0000024161    0.0000077712


--------------
Atomic charges
--------------
  Index   Atom    Charge
      1      C    0.1826
      2      C    0.3821
      3      H   -0.0169
      4      H    0.0222
      5      H   -0.1830
      6      H   -0.1341
      7      N    0.5508
      8      O   -0.4082
      9      O   -0.3756
     10      N    0.0460
     11      H   -0.0133
     12      H   -0.0527


Dipole moment vector    (Debye):    -1.04210310    3.03216703    2.40990625
              magnitude (Debye):     4.01094302


-----------------------
Molecular orbitals info
-----------------------
n orbitals:              222
n spin:                    1

Note: only printing virtual orbitals with
      energy smaller than HOMO + 100. eV

HOMO (eV):              -5.9305
LUMO (eV):              -3.6340
HOMO-LUMO gap (eV):      2.2965

   Index   Energy (eV)    Occupation
     141       93.9170         0.000       
     140       93.2471         0.000       
     139       92.0368         0.000       
     138       91.0668         0.000       
     137       89.4981         0.000       
     136       88.9463         0.000       
     135       88.1715         0.000       
     134       86.5464         0.000       
     133       85.5418         0.000       
     132       84.1541         0.000       
     131       82.6888         0.000       
     130       82.2050         0.000       
     129       80.8343         0.000       
     128       80.5635         0.000       
     127       80.2755         0.000       
     126       79.6250         0.000       
     125       78.5215         0.000       
     124       76.2204         0.000       
     123       75.9741         0.000       
     122       74.7223         0.000       
     121       74.0042         0.000       
     120       72.8040         0.000       
     119       69.6309         0.000       
     118       69.4994         0.000       
     117       68.0565         0.000       
     116       67.3664         0.000       
     115       65.5587         0.000       
     114       63.1813         0.000       
     113       62.8435         0.000       
     112       61.5841         0.000       
     111       60.4611         0.000       
     110       60.2702         0.000       
     109       59.7352         0.000       
     108       59.0437         0.000       
     107       58.0825         0.000       
     106       57.0590         0.000       
     105       56.6445         0.000       
     104       56.4752         0.000       
     103       54.8939         0.000       
     102       54.5297         0.000       
     101       53.6221         0.000       
     100       50.9181         0.000       
      99       50.0513         0.000       
      98       48.8411         0.000       
      97       47.5876         0.000       
      96       47.3970         0.000       
      95       46.3848         0.000       
      94       45.6314         0.000       
      93       43.3349         0.000       
      92       42.7798         0.000       
      91       41.7419         0.000       
      90       40.5245         0.000       
      89       39.0640         0.000       
      88       37.7870         0.000       
      87       37.3894         0.000       
      86       34.9772         0.000       
      85       34.7610         0.000       
      84       34.0970         0.000       
      83       33.8315         0.000       
      82       33.1392         0.000       
      81       32.6011         0.000       
      80       31.7371         0.000       
      79       31.5832         0.000       
      78       30.5751         0.000       
      77       29.8790         0.000       
      76       28.8114         0.000       
      75       28.4016         0.000       
      74       28.1964         0.000       
      73       27.8453         0.000       
      72       26.4967         0.000       
      71       26.2004         0.000       
      70       25.2824         0.000       
      69       23.6077         0.000       
      68       22.9111         0.000       
      67       22.4404         0.000       
      66       22.1386         0.000       
      65       20.0337         0.000       
      64       19.3700         0.000       
      63       18.5369         0.000       
      62       17.8909         0.000       
      61       17.3070         0.000       
      60       17.0727         0.000       
      59       15.9059         0.000       
      58       14.9544         0.000       
      57       14.5777         0.000       
      56       12.8860         0.000       
      55       12.5555         0.000       
      54       12.1986         0.000       
      53       11.6942         0.000       
      52       11.3830         0.000       
      51       11.2574         0.000       
      50       10.7131         0.000       
      49        9.5615         0.000       
      48        9.2891         0.000       
      47        9.0975         0.000       
      46        8.6188         0.000       
      45        8.1403         0.000       
      44        7.6357         0.000       
      43        7.2388         0.000       
      42        6.9660         0.000       
      41        6.3460         0.000       
      40        6.2708         0.000       
      39        5.6038         0.000       
      38        5.5240         0.000       
      37        4.8656         0.000       
      36        4.5759         0.000       
      35        4.3011         0.000       
      34        2.7131         0.000       
      33        2.5015         0.000       
      32        2.0088         0.000       
      31        1.5834         0.000       
      30        0.8922         0.000       
      29        0.3234         0.000       
      28        0.0203         0.000       
      27       -0.4033         0.000       
      26       -0.5327         0.000       
      25       -3.6340         0.000 < LUMO
      24       -5.9305         2.000 < HOMO
      23       -7.0066         2.000       
      22       -7.5385         2.000       
      21       -7.8760         2.000       
      20       -9.1676         2.000       
      19      -10.5244         2.000       
      18      -10.9694         2.000       
      17      -11.4405         2.000       
      16      -12.4618         2.000       
      15      -12.9901         2.000       
      14      -13.2345         2.000       
      13      -14.0824         2.000       
      12      -14.4527         2.000       
      11      -17.5942         2.000       
      10      -19.7797         2.000       
       9      -23.6650         2.000       
       8      -26.3987         2.000       
       7      -30.6779         2.000       
       6     -270.4416         2.000       
       5     -272.8084         2.000       
       4     -382.5075         2.000       
       3     -387.8729         2.000       
       2     -512.6244         2.000       
       1     -512.6827         2.000       

AMS application finished. Exiting.
NORMAL TERMINATION
     Total cpu time:    1559.29
  Total system time:       8.57
 Total elapsed time:    1573.42
NORMAL TERMINATION
