srun: Job 662413 step creation temporarily disabled, retrying (Requested nodes are busy)
srun: Job 662413 step creation still disabled, retrying (Requested nodes are busy)
srun: Job 662413 step creation still disabled, retrying (Requested nodes are busy)
srun: Job 662413 step creation still disabled, retrying (Requested nodes are busy)
srun: Job 662413 step creation still disabled, retrying (Requested nodes are busy)
srun: Job 662413 step creation still disabled, retrying (Requested nodes are busy)
srun: Step created for StepId=662413.32

 *******************************************************************************
 *                                                                             *
 *  --------------------------------                                           *
 *   Amsterdam Modeling Suite (AMS)              2026.103                      *
 *  --------------------------------                                           *
 *                                               r260501 2026-05-01 873454b5   *
 *                                                                             *
 *                                                                             *
 *                              =================                              *
 *                              |               |                              *
 *                              |     A M S     |                              *
 *                              |               |                              *
 *                              =================                              *
 *                                                                             *
 *                                                                             *
 *   Online information and documentation:  https://www.scm.com/support/       *
 *   E-mail:  support@scm.com   info@scm.com                                   *
 *                                                                             *
 *   Scientific publications using AMS results must be properly referenced     *
 *   See the User Manuals (or the web site) for recommended citations          *
 *   The terms and conditions of the End User License Agreement apply to       *
 *   the use of AMS, https://www.scm.com/license-terms/                        *
 *                                                                             *
 **********************  x86_64_linux_intel / intelmpi  ************************
 
 Licensed to: Jong-June Jeon / University of Seoul 2026-06-02 13:44:15
 SCM User ID: u30731
  
 AMS 2026.103  RunTime: Jun03-2026 11:45:34  ShM Nodes: 1  Procs: 1

 AMS jobname: c2_fragB_ts
 AMS jobid  : 1202371894

 Start   directory: /gpfs/home1/yeseo1ee/projects/eda-asm-prediction/ADF_800/adf_outputs/batch_003/qmrxn20_e2_A_A_E_A_A_B/
 Results directory: /gpfs/home1/yeseo1ee/projects/eda-asm-prediction/ADF_800/adf_outputs/batch_003/qmrxn20_e2_A_A_E_A_A_B/c2_fragB_ts.results/
 Scratch directory: /tmp/amstmp_c2_fragB_ts_kid0.1202371894/

 RNG seed: -893887556 -1954792678 -1478812213 1077233985 -1229625254 1194810143 -704653709 -2139584339



                      ************************************************************************
                      *  ADF 2026.103  RunTime: Jun03-2026 11:45:34  ShM Nodes: 1  Procs: 1  *
                      ************************************************************************
  

       ****************************
       * SINGLE POINT CALCULATION *
       ****************************

--------
Geometry
--------
Formula: C2H6FN
Atoms
  Index Symbol   x (angstrom)   y (angstrom)   z (angstrom)
      1      C    -0.27603845     0.01014608    -0.21932340
      2      C     0.01031868    -0.22181403     1.08901888
      3      F    -2.71008106     0.18335476     1.69847667
      4      H    -1.85661620    -0.06810253     1.35475602
      5      H    -0.47516911    -0.81991656    -0.89280360
      6      H    -0.62323499     0.98195843    -0.53547914
      7      H     0.31684106    -1.21752832     1.40866092
      8      N     0.54431879     0.87959407     1.86726762
      9      H    -0.20415687     1.49138244     2.17539084
     10      H     1.09725838     1.38079909     1.17153323

Total System Charge              0.00000


----------------
ADF Engine Input
----------------
 
   Basis
     Type TZ2P
     Core None
   End
   XC
     GGA BLYP
     Dispersion GRIMME3 BJDAMP
   End
   Symmetry NOSYM
   NumericalQuality Normal
   Unrestricted No
   SCF
     Iterations 200
     Converge 1.0e-6
   End
   Save TAPE21
 

 Title: *** (NO TITLE) ***

 *** adf ***



 ===========================
 A T T A C H E D   F I L E S
 ===========================
  



 ===============================
 M O D E L   P A R A M E T E R S
 ===============================
  
 DENSITY FUNCTIONAL POTENTIAL (scf)
    LDA:                               Exchange only                           == Not Default ==
    Gradient Corrections:              Becke88 LYP                             == Not Default ==

 SPIN  (restricted / unrestr.)
    Molecule:                          Restricted                               
    Fragments:                         Restricted                               

 OTHER ASPECTS
    Relativistic Corrections:          scalar (ZORA,MAPA)                       

    Nuclear Charge Density Model:      Point Charge Nuclei                      
    Core Treatment:                    Frozen Orbital(s)                        

    Hyperfine or Zeeman Interaction:   ---                                      

 Settings for Grimme D3 dispersion correction

      damping                        BJ
      s6                          1.000
      s8                          2.700
      a1                          0.430
      a2                          4.236

 Other (technical) parameters

      alpha                      14.000
      version                         4
 


 Fragment File(s)
 ----------------
 C:
         file : /gpfs/home1/yeseo1ee/projects/eda-asm-prediction/ADF_800/adf_outputs/batch_003/qmrxn20_e2_A_A_E_A_A_B/c2_fragB_ts.results/t21.50BA88D5.C
         jobid: 0
         title: Carbon (TZ2P)
 F:
         file : /gpfs/home1/yeseo1ee/projects/eda-asm-prediction/ADF_800/adf_outputs/batch_003/qmrxn20_e2_A_A_E_A_A_B/c2_fragB_ts.results/t21.CCE1280.F
         jobid: 0
         title: Fluorine (TZ2P)
 H:
         file : /gpfs/home1/yeseo1ee/projects/eda-asm-prediction/ADF_800/adf_outputs/batch_003/qmrxn20_e2_A_A_E_A_A_B/c2_fragB_ts.results/t21.6F35CCAB.H
         jobid: 0
         title: Hydrogen (TZ2P)
 N:
         file : /gpfs/home1/yeseo1ee/projects/eda-asm-prediction/ADF_800/adf_outputs/batch_003/qmrxn20_e2_A_A_E_A_A_B/c2_fragB_ts.results/t21.44EAA48D.N
         jobid: 0
         title: Nitrogen (TZ2P)



 ===============
 G E O M E T R Y  ***  3D  Molecule  ***
 ===============
  

 ATOMS
 =====                            X Y Z                    CHARGE
                                (Angstrom)             Nucl     +Core       At.Mass
                       --------------------------    ----------------       -------
    1  C              -0.2760    0.0101   -0.2193      6.00      6.00       12.0000
    2  C               0.0103   -0.2218    1.0890      6.00      6.00       12.0000
    3  F              -2.7101    0.1834    1.6985      9.00      9.00       18.9984
    4  H              -1.8566   -0.0681    1.3548      1.00      1.00        1.0078
    5  H              -0.4752   -0.8199   -0.8928      1.00      1.00        1.0078
    6  H              -0.6232    0.9820   -0.5355      1.00      1.00        1.0078
    7  H               0.3168   -1.2175    1.4087      1.00      1.00        1.0078
    8  N               0.5443    0.8796    1.8673      7.00      7.00       14.0031
    9  H              -0.2042    1.4914    2.1754      1.00      1.00        1.0078
   10  H               1.0973    1.3808    1.1715      1.00      1.00        1.0078


 FRAGMENTS
 =========                                     Atoms in this Fragment     Cart. coord.s (Angstrom)
                                               -------------------------------------------------------
    1  C                                                 1  C           -0.2760    0.0101   -0.2193
    2  C                                                 2  C            0.0103   -0.2218    1.0890
    3  F                                                 3  F           -2.7101    0.1834    1.6985
    4  H                                                 4  H           -1.8566   -0.0681    1.3548
    5  H                                                 5  H           -0.4752   -0.8199   -0.8928
    6  H                                                 6  H           -0.6232    0.9820   -0.5355
    7  H                                                 7  H            0.3168   -1.2175    1.4087
    8  H                                                 9  H           -0.2042    1.4914    2.1754
    9  H                                                10  H            1.0973    1.3808    1.1715
   10  N                                                 8  N            0.5443    0.8796    1.8673


 Interatomic Distance Matrix (Angstrom)
 --------------------------------------

   1)     0.000
   2)     1.359   0.000
   3)     3.104   2.817   0.000
   4)     2.232   1.892   0.954   0.000
   5)     1.087   2.126   3.566   2.743   0.000
   6)     1.079   2.119   3.160   2.489   1.843   0.000
   7)     2.123   1.090   3.348   2.459   2.466   3.082   0.000
   8)     2.405   1.450   3.332   2.632   3.398   2.673   2.159   0.000
   9)     2.817   2.040   2.867   2.416   3.851   2.790   2.863   1.015   0.000
  10)     2.387   1.938   4.026   3.295   3.403   2.456   2.723   1.020   1.647   0.000

 Min. Distance =    0.9538
 Max. Distance =    4.0258



 =====================================
 S Y M M E T R Y ,   E L E C T R O N S
 =====================================
  
 Symmetry: NOSYM

 Irreducible Representations, including subspecies
 -------------------------------------------------
 A


 Configuration of Valence Electrons
 ==================================
 ( determined in the SCF procedure )

 Total:   34

 Net Charge: 0 (Nuclei minus Electrons)

 Aufbau principle for MO occupations will be applied through SCF cycle no.     100
 Thereafter, the program will assign electrons to MOs that are spatially
 similar to the occupied MOs in a "reference" cycle ("KeepOrbitals").
 The reference cycle is always the PREVIOUS cycle: it will evolve with
 the SCF procedure.
 ***************************************************************************************************



                                      ****************************************
                                      *  B U I L D : (Fragments, Functions)  *
                                      ****************************************
  



 =======
 S F O s  ***  (Symmetrized Fragment Orbitals)  ***
 =======
  
 SFOs are linear combinations of (valence) Fragment Orbitals (FOs), such that the SFOs transform as the
 irreducible representations of the (molecular) symmetry group. Each SFO is therefore characterized by
 an irrep of the molecule and by a few (or only one) generating FOs.
 The SFOs constitute a symmetry-adapted basis for the Fock matrix. The MO eigenvector coefficients in
 this basis provide a direct interpretation of the MOs in terms of Frontier Orbital Theory.

 The SFOs are combined with auxiliary Core Functions (CFs) to ensure orthogonalization on the (frozen)
 Core Orbitals (COs). The Core-orthogonalized SFOs (CSFOs) constitute the true Fock basis.

 The FOs, and hence also the (C)SFOs are combinations of the elementary basis functions (BAS). The basis
 functions that participate in the description of the SFOs depend on the irrep. The indices of the
 involved functions are printed below for each irrep.
 (The complete list of primitive basis functions is printed in another section)

 Total nr. of (C)SFOs (summation over all irreps) :   170

 NOTE: a (C)SFO that is defined as a combination of more than one FO is usually NOT normalized.



                                       === A ===
 Nr. of SFOs :  170
 Cartesian basis functions that participate in this irrep (total number =   192) :
      1     2     3     4     5     6     9    12     7    10
     13     8    11    14    15    16    17    18    19    20
     21    22    23    24    25    26    27    28    29    30
     31    32    33    34    35    36    39    42    37    40
     43    38    41    44    45    46    47    48    49    50
     51    52    53    54    55    56    57    58    59    60
     61    62    63    64    65    66    69    72    67    70
     73    68    71    74    75    76    77    78    79    80
     81    82    83    84    85    86    87    88    89    90
     91    92    93    94    95    96    97    98    99   100
    101   102   103   104   105   106   107   108   109   110
    111   112   113   114   115   116   117   118   119   120
    121   122   123   124   125   126   127   128   129   130
    131   132   133   134   135   136   137   138   139   140
    141   142   143   144   145   146   147   148   149   150
    151   152   153   154   155   156   157   158   159   160
    161   162   163   164   165   166   167   168   171   174
    169   172   175   170   173   176   177   178   179   180
    181   182   183   184   185   186   187   188   189   190
    191   192

    SFO  (index         Fragment          Generating    Expansion in Fragment Orbitals
  indx  incl.CFs)   Occup   Orb.Energy   FragmentType  Coeff.   Orbital     on Fragment
 --------------------------------------------------------------------------------------
     1       1      2.000     -10.066 au  C             1.00      1 S               1
                        (    -273.921 eV)
     2       2      2.000      -0.501 au  C             1.00      2 S               1
                        (     -13.620 eV)
     3       3       --         0.373 au  C             1.00      3 S               1
                        (      10.158 eV)
     4       4       --         5.405 au  C             1.00      4 S               1
                        (     147.073 eV)
     5       5       --        49.848 au  C             1.00      5 S               1
                        (    1356.422 eV)
     6       6      0.667      -0.193 au  C             1.00      1 P:x             1
                        (      -5.239 eV)
     7       7       --         0.169 au  C             1.00      2 P:x             1
                        (       4.589 eV)
     8       8       --         2.013 au  C             1.00      3 P:x             1
                        (      54.789 eV)
     9       9      0.667      -0.193 au  C             1.00      1 P:y             1
                        (      -5.239 eV)
    10      10       --         0.169 au  C             1.00      2 P:y             1
                        (       4.589 eV)
    11      11       --         2.013 au  C             1.00      3 P:y             1
                        (      54.789 eV)
    12      12      0.667      -0.193 au  C             1.00      1 P:z             1
                        (      -5.239 eV)
    13      13       --         0.169 au  C             1.00      2 P:z             1
                        (       4.589 eV)
    14      14       --         2.013 au  C             1.00      3 P:z             1
                        (      54.789 eV)
    15      15       --         1.243 au  C             1.00      1 D:z2            1
                        (      33.824 eV)
    16      16       --         1.243 au  C             1.00      1 D:x2-y2         1
                        (      33.824 eV)
    17      17       --         1.243 au  C             1.00      1 D:xy            1
                        (      33.824 eV)
    18      18       --         1.243 au  C             1.00      1 D:xz            1
                        (      33.824 eV)
    19      19       --         1.243 au  C             1.00      1 D:yz            1
                        (      33.824 eV)
    20      20       --         4.016 au  C             1.00      1 F:z3            1
                        (     109.271 eV)
    21      21       --         4.016 au  C             1.00      1 F:z             1
                        (     109.271 eV)
    22      22       --         4.016 au  C             1.00      1 F:xyz           1
                        (     109.271 eV)
    23      23       --         4.016 au  C             1.00      1 F:z2x           1
                        (     109.271 eV)
    24      24       --         4.016 au  C             1.00      1 F:z2y           1
                        (     109.271 eV)
    25      25       --         4.016 au  C             1.00      1 F:x             1
                        (     109.271 eV)
    26      26       --         4.016 au  C             1.00      1 F:y             1
                        (     109.271 eV)
    27      27      2.000     -10.066 au  C             1.00      1 S               2
                        (    -273.921 eV)
    28      28      2.000      -0.501 au  C             1.00      2 S               2
                        (     -13.620 eV)
    29      29       --         0.373 au  C             1.00      3 S               2
                        (      10.158 eV)
    30      30       --         5.405 au  C             1.00      4 S               2
                        (     147.073 eV)
    31      31       --        49.848 au  C             1.00      5 S               2
                        (    1356.422 eV)
    32      32      0.667      -0.193 au  C             1.00      1 P:x             2
                        (      -5.239 eV)
    33      33       --         0.169 au  C             1.00      2 P:x             2
                        (       4.589 eV)
    34      34       --         2.013 au  C             1.00      3 P:x             2
                        (      54.789 eV)
    35      35      0.667      -0.193 au  C             1.00      1 P:y             2
                        (      -5.239 eV)
    36      36       --         0.169 au  C             1.00      2 P:y             2
                        (       4.589 eV)
    37      37       --         2.013 au  C             1.00      3 P:y             2
                        (      54.789 eV)
    38      38      0.667      -0.193 au  C             1.00      1 P:z             2
                        (      -5.239 eV)
    39      39       --         0.169 au  C             1.00      2 P:z             2
                        (       4.589 eV)
    40      40       --         2.013 au  C             1.00      3 P:z             2
                        (      54.789 eV)
    41      41       --         1.243 au  C             1.00      1 D:z2            2
                        (      33.824 eV)
    42      42       --         1.243 au  C             1.00      1 D:x2-y2         2
                        (      33.824 eV)
    43      43       --         1.243 au  C             1.00      1 D:xy            2
                        (      33.824 eV)
    44      44       --         1.243 au  C             1.00      1 D:xz            2
                        (      33.824 eV)
    45      45       --         1.243 au  C             1.00      1 D:yz            2
                        (      33.824 eV)
    46      46       --         4.016 au  C             1.00      1 F:z3            2
                        (     109.271 eV)
    47      47       --         4.016 au  C             1.00      1 F:z             2
                        (     109.271 eV)
    48      48       --         4.016 au  C             1.00      1 F:xyz           2
                        (     109.271 eV)
    49      49       --         4.016 au  C             1.00      1 F:z2x           2
                        (     109.271 eV)
    50      50       --         4.016 au  C             1.00      1 F:z2y           2
                        (     109.271 eV)
    51      51       --         4.016 au  C             1.00      1 F:x             2
                        (     109.271 eV)
    52      52       --         4.016 au  C             1.00      1 F:y             2
                        (     109.271 eV)
    53      53      2.000     -24.402 au  F             1.00      1 S               3
                        (    -664.014 eV)
    54      54      2.000      -1.095 au  F             1.00      2 S               3
                        (     -29.785 eV)
    55      55       --         0.023 au  F             1.00      3 S               3
                        (       0.624 eV)
    56      56       --         1.576 au  F             1.00      4 S               3
                        (      42.880 eV)
    57      57       --        47.803 au  F             1.00      5 S               3
                        (    1300.785 eV)
    58      58      1.667      -0.409 au  F             1.00      1 P:x             3
                        (     -11.127 eV)
    59      59       --         0.428 au  F             1.00      2 P:x             3
                        (      11.654 eV)
    60      60       --         4.556 au  F             1.00      3 P:x             3
                        (     123.977 eV)
    61      61      1.667      -0.409 au  F             1.00      1 P:y             3
                        (     -11.127 eV)
    62      62       --         0.428 au  F             1.00      2 P:y             3
                        (      11.654 eV)
    63      63       --         4.556 au  F             1.00      3 P:y             3
                        (     123.977 eV)
    64      64      1.667      -0.409 au  F             1.00      1 P:z             3
                        (     -11.127 eV)
    65      65       --         0.428 au  F             1.00      2 P:z             3
                        (      11.654 eV)
    66      66       --         4.556 au  F             1.00      3 P:z             3
                        (     123.977 eV)
    67      67       --         1.117 au  F             1.00      1 D:z2            3
                        (      30.390 eV)
    68      68       --         1.117 au  F             1.00      1 D:x2-y2         3
                        (      30.390 eV)
    69      69       --         1.117 au  F             1.00      1 D:xy            3
                        (      30.390 eV)
    70      70       --         1.117 au  F             1.00      1 D:xz            3
                        (      30.390 eV)
    71      71       --         1.117 au  F             1.00      1 D:yz            3
                        (      30.390 eV)
    72      72       --         3.416 au  F             1.00      1 F:z3            3
                        (      92.949 eV)
    73      73       --         3.416 au  F             1.00      1 F:z             3
                        (      92.949 eV)
    74      74       --         3.416 au  F             1.00      1 F:xyz           3
                        (      92.949 eV)
    75      75       --         3.416 au  F             1.00      1 F:z2x           3
                        (      92.949 eV)
    76      76       --         3.416 au  F             1.00      1 F:z2y           3
                        (      92.949 eV)
    77      77       --         3.416 au  F             1.00      1 F:x             3
                        (      92.949 eV)
    78      78       --         3.416 au  F             1.00      1 F:y             3
                        (      92.949 eV)
    79      79      1.000      -0.240 au  H             1.00      1 S               4
                        (      -6.532 eV)
    80      80       --         0.088 au  H             1.00      2 S               4
                        (       2.394 eV)
    81      81       --         1.502 au  H             1.00      3 S               4
                        (      40.869 eV)
    82      82       --         0.406 au  H             1.00      1 P:x             4
                        (      11.051 eV)
    83      83       --         0.406 au  H             1.00      1 P:y             4
                        (      11.051 eV)
    84      84       --         0.406 au  H             1.00      1 P:z             4
                        (      11.051 eV)
    85      85       --         2.569 au  H             1.00      1 D:z2            4
                        (      69.917 eV)
    86      86       --         2.569 au  H             1.00      1 D:x2-y2         4
                        (      69.917 eV)
    87      87       --         2.569 au  H             1.00      1 D:xy            4
                        (      69.917 eV)
    88      88       --         2.569 au  H             1.00      1 D:xz            4
                        (      69.917 eV)
    89      89       --         2.569 au  H             1.00      1 D:yz            4
                        (      69.917 eV)
    90      90      1.000      -0.240 au  H             1.00      1 S               5
                        (      -6.532 eV)
    91      91       --         0.088 au  H             1.00      2 S               5
                        (       2.394 eV)
    92      92       --         1.502 au  H             1.00      3 S               5
                        (      40.869 eV)
    93      93       --         0.406 au  H             1.00      1 P:x             5
                        (      11.051 eV)
    94      94       --         0.406 au  H             1.00      1 P:y             5
                        (      11.051 eV)
    95      95       --         0.406 au  H             1.00      1 P:z             5
                        (      11.051 eV)
    96      96       --         2.569 au  H             1.00      1 D:z2            5
                        (      69.917 eV)
    97      97       --         2.569 au  H             1.00      1 D:x2-y2         5
                        (      69.917 eV)
    98      98       --         2.569 au  H             1.00      1 D:xy            5
                        (      69.917 eV)
    99      99       --         2.569 au  H             1.00      1 D:xz            5
                        (      69.917 eV)
   100     100       --         2.569 au  H             1.00      1 D:yz            5
                        (      69.917 eV)
   101     101      1.000      -0.240 au  H             1.00      1 S               6
                        (      -6.532 eV)
   102     102       --         0.088 au  H             1.00      2 S               6
                        (       2.394 eV)
   103     103       --         1.502 au  H             1.00      3 S               6
                        (      40.869 eV)
   104     104       --         0.406 au  H             1.00      1 P:x             6
                        (      11.051 eV)
   105     105       --         0.406 au  H             1.00      1 P:y             6
                        (      11.051 eV)
   106     106       --         0.406 au  H             1.00      1 P:z             6
                        (      11.051 eV)
   107     107       --         2.569 au  H             1.00      1 D:z2            6
                        (      69.917 eV)
   108     108       --         2.569 au  H             1.00      1 D:x2-y2         6
                        (      69.917 eV)
   109     109       --         2.569 au  H             1.00      1 D:xy            6
                        (      69.917 eV)
   110     110       --         2.569 au  H             1.00      1 D:xz            6
                        (      69.917 eV)
   111     111       --         2.569 au  H             1.00      1 D:yz            6
                        (      69.917 eV)
   112     112      1.000      -0.240 au  H             1.00      1 S               7
                        (      -6.532 eV)
   113     113       --         0.088 au  H             1.00      2 S               7
                        (       2.394 eV)
   114     114       --         1.502 au  H             1.00      3 S               7
                        (      40.869 eV)
   115     115       --         0.406 au  H             1.00      1 P:x             7
                        (      11.051 eV)
   116     116       --         0.406 au  H             1.00      1 P:y             7
                        (      11.051 eV)
   117     117       --         0.406 au  H             1.00      1 P:z             7
                        (      11.051 eV)
   118     118       --         2.569 au  H             1.00      1 D:z2            7
                        (      69.917 eV)
   119     119       --         2.569 au  H             1.00      1 D:x2-y2         7
                        (      69.917 eV)
   120     120       --         2.569 au  H             1.00      1 D:xy            7
                        (      69.917 eV)
   121     121       --         2.569 au  H             1.00      1 D:xz            7
                        (      69.917 eV)
   122     122       --         2.569 au  H             1.00      1 D:yz            7
                        (      69.917 eV)
   123     123      1.000      -0.240 au  H             1.00      1 S               8
                        (      -6.532 eV)
   124     124       --         0.088 au  H             1.00      2 S               8
                        (       2.394 eV)
   125     125       --         1.502 au  H             1.00      3 S               8
                        (      40.869 eV)
   126     126       --         0.406 au  H             1.00      1 P:x             8
                        (      11.051 eV)
   127     127       --         0.406 au  H             1.00      1 P:y             8
                        (      11.051 eV)
   128     128       --         0.406 au  H             1.00      1 P:z             8
                        (      11.051 eV)
   129     129       --         2.569 au  H             1.00      1 D:z2            8
                        (      69.917 eV)
   130     130       --         2.569 au  H             1.00      1 D:x2-y2         8
                        (      69.917 eV)
   131     131       --         2.569 au  H             1.00      1 D:xy            8
                        (      69.917 eV)
   132     132       --         2.569 au  H             1.00      1 D:xz            8
                        (      69.917 eV)
   133     133       --         2.569 au  H             1.00      1 D:yz            8
                        (      69.917 eV)
   134     134      1.000      -0.240 au  H             1.00      1 S               9
                        (      -6.532 eV)
   135     135       --         0.088 au  H             1.00      2 S               9
                        (       2.394 eV)
   136     136       --         1.502 au  H             1.00      3 S               9
                        (      40.869 eV)
   137     137       --         0.406 au  H             1.00      1 P:x             9
                        (      11.051 eV)
   138     138       --         0.406 au  H             1.00      1 P:y             9
                        (      11.051 eV)
   139     139       --         0.406 au  H             1.00      1 P:z             9
                        (      11.051 eV)
   140     140       --         2.569 au  H             1.00      1 D:z2            9
                        (      69.917 eV)
   141     141       --         2.569 au  H             1.00      1 D:x2-y2         9
                        (      69.917 eV)
   142     142       --         2.569 au  H             1.00      1 D:xy            9
                        (      69.917 eV)
   143     143       --         2.569 au  H             1.00      1 D:xz            9
                        (      69.917 eV)
   144     144       --         2.569 au  H             1.00      1 D:yz            9
                        (      69.917 eV)
   145     145      2.000     -14.160 au  N             1.00      1 S              10
                        (    -385.319 eV)
   146     146      2.000      -0.678 au  N             1.00      2 S              10
                        (     -18.450 eV)
   147     147       --         0.517 au  N             1.00      3 S              10
                        (      14.073 eV)
   148     148       --         6.872 au  N             1.00      4 S              10
                        (     186.990 eV)
   149     149       --        63.432 au  N             1.00      5 S              10
                        (    1726.082 eV)
   150     150      1.000      -0.260 au  N             1.00      1 P:x            10
                        (      -7.062 eV)
   151     151       --         0.281 au  N             1.00      2 P:x            10
                        (       7.649 eV)
   152     152       --         3.275 au  N             1.00      3 P:x            10
                        (      89.105 eV)
   153     153      1.000      -0.260 au  N             1.00      1 P:y            10
                        (      -7.062 eV)
   154     154       --         0.281 au  N             1.00      2 P:y            10
                        (       7.649 eV)
   155     155       --         3.275 au  N             1.00      3 P:y            10
                        (      89.105 eV)
   156     156      1.000      -0.260 au  N             1.00      1 P:z            10
                        (      -7.062 eV)
   157     157       --         0.281 au  N             1.00      2 P:z            10
                        (       7.649 eV)
   158     158       --         3.275 au  N             1.00      3 P:z            10
                        (      89.105 eV)
   159     159       --         1.250 au  N             1.00      1 D:z2           10
                        (      34.005 eV)
   160     160       --         1.250 au  N             1.00      1 D:x2-y2        10
                        (      34.005 eV)
   161     161       --         1.250 au  N             1.00      1 D:xy           10
                        (      34.005 eV)
   162     162       --         1.250 au  N             1.00      1 D:xz           10
                        (      34.005 eV)
   163     163       --         1.250 au  N             1.00      1 D:yz           10
                        (      34.005 eV)
   164     164       --         4.013 au  N             1.00      1 F:z3           10
                        (     109.190 eV)
   165     165       --         4.013 au  N             1.00      1 F:z            10
                        (     109.190 eV)
   166     166       --         4.013 au  N             1.00      1 F:xyz          10
                        (     109.190 eV)
   167     167       --         4.013 au  N             1.00      1 F:z2x          10
                        (     109.190 eV)
   168     168       --         4.013 au  N             1.00      1 F:z2y          10
                        (     109.190 eV)
   169     169       --         4.013 au  N             1.00      1 F:x            10
                        (     109.190 eV)
   170     170       --         4.013 au  N             1.00      1 F:y            10
                        (     109.190 eV)



 ================================
 (Slater-type)  F U N C T I O N S  ***  (Basis and Fit)  ***
 ================================
  

 Atom Type    1  (C)
 ==============

 Valence Basis Sets:  10
 -----------------------
   1 S    7.680000
   1 S    5.000000
   2 S    1.280000
   2 S    2.100000
   2 S    4.600000
   2 P    0.820000
   2 P    1.480000
   2 P    2.940000
   3 D    2.200000
   4 F    3.300000

 Atom Type    2  (F)
 ==============

 Valence Basis Sets:  10
 -----------------------
   1 S   10.880000
   1 S    7.700000
   2 S    3.240000
   2 S    1.940000
   2 S    0.740000
   2 P    4.540000
   2 P    2.300000
   2 P    1.240000
   3 D    2.000000
   4 F    3.000000

 Atom Type    3  (H)
 ==============

 Valence Basis Sets:   5
 -----------------------
   1 S    0.690000
   1 S    0.920000
   1 S    1.580000
   2 P    1.250000
   3 D    2.500000

 Atom Type    4  (N)
 ==============

 Valence Basis Sets:  10
 -----------------------
   1 S    8.740000
   1 S    5.900000
   2 S    5.150000
   2 S    2.500000
   2 S    1.500000
   2 P    3.680000
   2 P    1.880000
   2 P    1.000000
   3 D    2.200000
   4 F    3.300000


 BAS: List of all Elementary Cartesian Basis Functions
 =====================================================

 The numbering in the list below (to the right of the function characteristics) is referred
 to in print-outs of MO eigenvectors and Mulliken populations in the BAS representation
 (as contrasted to the SFO representation).

 Notes:
 1. The functions are characterized by a polynomial prefactor (powers of x,y,z and r) and
    an exponential decay factor alpha.
 2. Since the basis sets are specific for an atom TYPE, the individual functions occur on
    all atoms of that type.
 3. The word 'Core' in the left margin signals that it is a Core Function (CF) : not a
    degree of freedom in the valence set, but only used to ensure orthogonalization of
    the other valence basis functions on the frozen Core Orbitals.


 (power of) X  Y  Z  R     Alpha  on Atom
            ==========     =====     ==========

 C                                    1    2
                                  ---------------------------------------------------------------------------
            0  0  0  0     7.680      1   31
            0  0  0  0     5.000      2   32
            0  0  0  1     1.280      3   33
            0  0  0  1     2.100      4   34
            0  0  0  1     4.600      5   35
            1  0  0  0     0.820      6   36
            0  1  0  0     0.820      7   37
            0  0  1  0     0.820      8   38
            1  0  0  0     1.480      9   39
            0  1  0  0     1.480     10   40
            0  0  1  0     1.480     11   41
            1  0  0  0     2.940     12   42
            0  1  0  0     2.940     13   43
            0  0  1  0     2.940     14   44
            2  0  0  0     2.200     15   45
            1  1  0  0     2.200     16   46
            1  0  1  0     2.200     17   47
            0  2  0  0     2.200     18   48
            0  1  1  0     2.200     19   49
            0  0  2  0     2.200     20   50
            3  0  0  0     3.300     21   51
            2  1  0  0     3.300     22   52
            2  0  1  0     3.300     23   53
            1  2  0  0     3.300     24   54
            1  1  1  0     3.300     25   55
            1  0  2  0     3.300     26   56
            0  3  0  0     3.300     27   57
            0  2  1  0     3.300     28   58
            0  1  2  0     3.300     29   59
            0  0  3  0     3.300     30   60

 F                                    3
                                  ---------------------------------------------------------------------------
            0  0  0  0    10.880     61
            0  0  0  0     7.700     62
            0  0  0  1     3.240     63
            0  0  0  1     1.940     64
            0  0  0  1     0.740     65
            1  0  0  0     4.540     66
            0  1  0  0     4.540     67
            0  0  1  0     4.540     68
            1  0  0  0     2.300     69
            0  1  0  0     2.300     70
            0  0  1  0     2.300     71
            1  0  0  0     1.240     72
            0  1  0  0     1.240     73
            0  0  1  0     1.240     74
            2  0  0  0     2.000     75
            1  1  0  0     2.000     76
            1  0  1  0     2.000     77
            0  2  0  0     2.000     78
            0  1  1  0     2.000     79
            0  0  2  0     2.000     80
            3  0  0  0     3.000     81
            2  1  0  0     3.000     82
            2  0  1  0     3.000     83
            1  2  0  0     3.000     84
            1  1  1  0     3.000     85
            1  0  2  0     3.000     86
            0  3  0  0     3.000     87
            0  2  1  0     3.000     88
            0  1  2  0     3.000     89
            0  0  3  0     3.000     90

 H                                    4    5    6    7    8    9
                                  ---------------------------------------------------------------------------
            0  0  0  0     0.690     91  103  115  127  139  151
            0  0  0  0     0.920     92  104  116  128  140  152
            0  0  0  0     1.580     93  105  117  129  141  153
            1  0  0  0     1.250     94  106  118  130  142  154
            0  1  0  0     1.250     95  107  119  131  143  155
            0  0  1  0     1.250     96  108  120  132  144  156
            2  0  0  0     2.500     97  109  121  133  145  157
            1  1  0  0     2.500     98  110  122  134  146  158
            1  0  1  0     2.500     99  111  123  135  147  159
            0  2  0  0     2.500    100  112  124  136  148  160
            0  1  1  0     2.500    101  113  125  137  149  161
            0  0  2  0     2.500    102  114  126  138  150  162

 N                                   10
                                  ---------------------------------------------------------------------------
            0  0  0  0     8.740    163
            0  0  0  0     5.900    164
            0  0  0  1     5.150    165
            0  0  0  1     2.500    166
            0  0  0  1     1.500    167
            1  0  0  0     3.680    168
            0  1  0  0     3.680    169
            0  0  1  0     3.680    170
            1  0  0  0     1.880    171
            0  1  0  0     1.880    172
            0  0  1  0     1.880    173
            1  0  0  0     1.000    174
            0  1  0  0     1.000    175
            0  0  1  0     1.000    176
            2  0  0  0     2.200    177
            1  1  0  0     2.200    178
            1  0  1  0     2.200    179
            0  2  0  0     2.200    180
            0  1  1  0     2.200    181
            0  0  2  0     2.200    182
            3  0  0  0     3.300    183
            2  1  0  0     3.300    184
            2  0  1  0     3.300    185
            1  2  0  0     3.300    186
            1  1  1  0     3.300    187
            1  0  2  0     3.300    188
            0  3  0  0     3.300    189
            0  2  1  0     3.300    190
            0  1  2  0     3.300    191
            0  0  3  0     3.300    192

 Total number of charge fitting functions (nprimf)       637
 Total number of Cartesian basis functions (naos)        192
 Total number of Cartesian core functions  (ncos)          0

 ***************************************************************************************************



                                              ***********************
                                              *  T E C H N I C A L  *
                                              ***********************
  



 =============================================================
 P A R A L L E L I Z A T I O N  and  V E C T O R I Z A T I O N
 =============================================================
  
 Nr of parallel processes:                                1
 Maximum vector length in NumInt loops:                 128



 =====================
 S C F   U P D A T E S
 =====================
  
 Max. nr. of cycles:                               200
 Convergence criterion:                              0.0000010000
   secondary criterion:                              0.0010000000

 Mix parameter (when DIIS does not apply):           0.2000000000
 Mixed ADIIS+SDIIS will be used                  
    Max number of expansion vectors:                10
    Pure ADIIS when Max([F,P]) is above              0.1000000000
    Pure SDIIS when Max([F,P]) is below              0.0010000000
 Automatic ElectronSmearing (in case of problematic SCF convergence) disabled



 =================
 P R E C I S I O N  ***  (General: NumInt, NeglectFunctionTails, ...)  ***
 =================
  

 NumInt:           Target precision:                 4.0000000000
 -------           Initial precision:                4.0000000000
                   Min. precision (optimization):    4.0000000000

 Neglect Functions:          Basis functions:        0.1000000000E-05
 ------------------          Fit functions:          0.1000000000E-05



 ===========================
 L I N E A R   S C A L I N G
 ===========================
  

 Cut-off radii density fit:                        0.1000000000E-07
 Overlap cut-off criterion AO matrix elements:     0.1000000000E-05
 Cut-offs for Coulomb potential and fitted density:0.1000000000E-07
 Cut-off criterion for Coulomb multipole terms:    0.1000000000E-07
 Progressive Convergence parameter:                 0.000000000    
 ***************************************************************************************************



                                            ***************************
                                            *  C O M P U T A T I O N  *
                                            ***************************
  

 Number of elements of the density matrix on this node (used, total):     18528     18528



 ===========================================
 Numerical Integration : Fuzzy Cells (Becke)
 ===========================================
  
 Becke grid quality: NORMAL         
  
 Lebedev angular grid order:             min:  11 max:  23
 Nr. of radial points:                   min:  46 max:  55

 Total nr. of points:      64226
 Nr. of blocks:              502
 Block length:               128
 Nr. of dummy points:         30


 Test of Precision of the Numerical Integration Grid
 ===================================================

 Integral of the Total Core Density:                   0.00000000000000



 ========================
 Density Fitting (zlmFit)
 ========================
  
 ZlmFit Fit Quality: NORMAL         
  
 Max L-expansion:                        min:   6 max:   7
 Nr. of radial interpolation points:     min:  39 max:  51



 =====
 S C F  ***  ScaSCF  ***
 =====
  
 Initial density matrix is calculated as sum of fragments

 CYCLE    1
 SCF Error: norm([F,P])=      4.576325358993, max([F,P])=      1.246464589533
 orbitals (Q,E):
 ---------------
 A :8...27           ( 2.00    -0.6935)  ( 2.00    -0.6158)  ( 2.00    -0.5963)  ( 2.00    -0.5898)
                     ( 2.00    -0.5806)  ( 2.00    -0.5015)  ( 2.00    -0.4692)  ( 2.00    -0.4690)
                     ( 2.00    -0.4108)  ( 2.00    -0.3987)  ( 0.00    -0.2076)  ( 0.00    -0.0640)
                     ( 0.00    -0.0358)  ( 0.00    -0.0258)  ( 0.00    -0.0156)  ( 0.00    -0.0050)
                     ( 0.00     0.0268)  ( 0.00     0.0514)  ( 0.00     0.0624)  ( 0.00     0.0885)

 CYCLE    2
   MIX coefficients:  0.8000  0.2000
 SCF Error: norm([F,P])=      1.042043317332, max([F,P])=      0.188629237724
 orbitals (Q,E):
 ---------------
 A :8...18           ( 2.00    -0.6375)  ( 2.00    -0.5546)  ( 2.00    -0.5407)  ( 2.00    -0.5261)
                     ( 2.00    -0.5173)  ( 2.00    -0.4470)  ( 2.00    -0.4111)  ( 2.00    -0.4110)
                     ( 2.00    -0.3466)  ( 2.00    -0.3299)  ( 0.00    -0.1585)

 CYCLE    3
  SDIIS (wt  0.000): -0.8813  1.8813
 A-DIIS (wt  1.000):  0.0000  1.0000
  DIIS coefficients:  0.0000  1.0000
 SCF Error: norm([F,P])=      0.519370816252, max([F,P])=      0.093167822546
 orbitals (Q,E):
 ---------------
 A :8...18           ( 2.00    -0.4752)  ( 2.00    -0.4104)  ( 2.00    -0.3775)  ( 2.00    -0.3603)
                     ( 2.00    -0.3251)  ( 2.00    -0.2869)  ( 2.00    -0.2591)  ( 2.00    -0.2588)
                     ( 2.00    -0.1927)  ( 2.00    -0.1373)  ( 0.00    -0.0311)

 CYCLE    4
  SDIIS (wt  0.000):  0.1704  0.4030  0.4266
 A-DIIS (wt  1.000):  0.0000  0.6931  0.3069
  DIIS coefficients:  0.0000  0.6931  0.3069
 SCF Error: norm([F,P])=      0.897236988918, max([F,P])=      0.175635379581
 orbitals (Q,E):
 ---------------
 A :8...18           ( 2.00    -0.5269)  ( 2.00    -0.4660)  ( 2.00    -0.4409)  ( 2.00    -0.4187)
                     ( 2.00    -0.3944)  ( 2.00    -0.3377)  ( 2.00    -0.3198)  ( 2.00    -0.3194)
                     ( 2.00    -0.2489)  ( 2.00    -0.2218)  ( 0.00    -0.0737)

 CYCLE    5
  SDIIS (wt  0.627):  0.0300  0.2621  0.1008  0.6070
 A-DIIS (wt  0.373):  0.0000  0.0000  0.0000  1.0000
  DIIS coefficients:  0.0188  0.1644  0.0633  0.7535
 SCF Error: norm([F,P])=      0.144363895717, max([F,P])=      0.037897835695
 orbitals (Q,E):
 ---------------
 A :8...18           ( 2.00    -0.5539)  ( 2.00    -0.4780)  ( 2.00    -0.4583)  ( 2.00    -0.4432)
                     ( 2.00    -0.4283)  ( 2.00    -0.3641)  ( 2.00    -0.3311)  ( 2.00    -0.3308)
                     ( 2.00    -0.2793)  ( 2.00    -0.2392)  ( 0.00    -0.0991)

 CYCLE    6
  SDIIS (wt  0.680): -0.0375  0.1511 -0.0041  0.5212  0.3693
 A-DIIS (wt  0.320):  0.0000  0.0000  0.0000  0.3948  0.6052
  DIIS coefficients: -0.0255  0.1027 -0.0028  0.4807  0.4448
 SCF Error: norm([F,P])=      0.109933871629, max([F,P])=      0.032694554721
 orbitals (Q,E):
 ---------------
 A :8...18           ( 2.00    -0.5455)  ( 2.00    -0.4758)  ( 2.00    -0.4532)  ( 2.00    -0.4359)
                     ( 2.00    -0.4159)  ( 2.00    -0.3553)  ( 2.00    -0.3290)  ( 2.00    -0.3286)
                     ( 2.00    -0.2668)  ( 2.00    -0.2364)  ( 0.00    -0.0886)

 CYCLE    7
  SDIIS (wt  0.844):  0.0049  0.0366  0.0107  0.2792  0.3060  0.3626
 A-DIIS (wt  0.156):  0.0000  0.0000  0.0000  0.0000  0.0940  0.9060
  DIIS coefficients:  0.0042  0.0309  0.0090  0.2356  0.2729  0.4474
 SCF Error: norm([F,P])=      0.037725420990, max([F,P])=      0.016453756606
 orbitals (Q,E):
 ---------------
 A :8...18           ( 2.00    -0.5446)  ( 2.00    -0.4743)  ( 2.00    -0.4520)  ( 2.00    -0.4353)
                     ( 2.00    -0.4156)  ( 2.00    -0.3552)  ( 2.00    -0.3280)  ( 2.00    -0.3276)
                     ( 2.00    -0.2665)  ( 2.00    -0.2343)  ( 0.00    -0.0884)

 CYCLE    8
  SDIIS (wt  0.936): -0.0034  0.0144 -0.0003  0.0933  0.1209  0.3283  0.4468
 A-DIIS (wt  0.064):  0.0000  0.0000  0.0000  0.0000  0.0000  0.2357  0.7643
  DIIS coefficients: -0.0032  0.0135 -0.0003  0.0873  0.1131  0.3224  0.4673
 SCF Error: norm([F,P])=      0.016756151845, max([F,P])=      0.007385086438
 orbitals (Q,E):
 ---------------
 A :8...18           ( 2.00    -0.5451)  ( 2.00    -0.4749)  ( 2.00    -0.4525)  ( 2.00    -0.4357)
                     ( 2.00    -0.4161)  ( 2.00    -0.3554)  ( 2.00    -0.3285)  ( 2.00    -0.3281)
                     ( 2.00    -0.2670)  ( 2.00    -0.2350)  ( 0.00    -0.0888)

 CYCLE    9
  SDIIS (wt  1.000): -0.0002  0.0016 -0.0001  0.0139  0.0184  0.0715  0.1442  0.7508
  DIIS coefficients: -0.0002  0.0016 -0.0001  0.0139  0.0184  0.0715  0.1442  0.7508
 SCF Error: norm([F,P])=      0.000837349320, max([F,P])=      0.000298636303
 orbitals (Q,E):
 ---------------
 A :8...18           ( 2.00    -0.5450)  ( 2.00    -0.4749)  ( 2.00    -0.4525)  ( 2.00    -0.4356)
                     ( 2.00    -0.4160)  ( 2.00    -0.3554)  ( 2.00    -0.3285)  ( 2.00    -0.3281)
                     ( 2.00    -0.2669)  ( 2.00    -0.2350)  ( 0.00    -0.0888)

 CYCLE   10
  SDIIS (wt  1.000): -0.0000  0.0002 -0.0001  0.0018  0.0025  0.0143  0.0375  0.2829  0.6609
  DIIS coefficients: -0.0000  0.0002 -0.0001  0.0018  0.0025  0.0143  0.0375  0.2829  0.6609
 SCF Error: norm([F,P])=      0.000124438895, max([F,P])=      0.000022173914
 orbitals (Q,E):
 ---------------
 A :8...18           ( 2.00    -0.5450)  ( 2.00    -0.4749)  ( 2.00    -0.4525)  ( 2.00    -0.4356)
                     ( 2.00    -0.4160)  ( 2.00    -0.3554)  ( 2.00    -0.3285)  ( 2.00    -0.3281)
                     ( 2.00    -0.2669)  ( 2.00    -0.2350)  ( 0.00    -0.0888)

 CYCLE   11
  SDIIS (wt  1.000): -0.0000  0.0000 -0.0000  0.0002  0.0004  0.0037  0.0121  0.1131  0.3519  0.5185
  DIIS coefficients: -0.0000  0.0000 -0.0000  0.0002  0.0004  0.0037  0.0121  0.1131  0.3519  0.5185
 SCF Error: norm([F,P])=      0.000046978514, max([F,P])=      0.000013414698
 orbitals (Q,E):
 ---------------
 A :8...18           ( 2.00    -0.5450)  ( 2.00    -0.4749)  ( 2.00    -0.4525)  ( 2.00    -0.4356)
                     ( 2.00    -0.4160)  ( 2.00    -0.3554)  ( 2.00    -0.3284)  ( 2.00    -0.3281)
                     ( 2.00    -0.2669)  ( 2.00    -0.2350)  ( 0.00    -0.0888)

 CYCLE   12
  SDIIS (wt  1.000): -0.0000 -0.0000 -0.0000  0.0000  0.0007  0.0027  0.0304  0.1194  0.3377  0.5091
  DIIS coefficients: -0.0000 -0.0000 -0.0000  0.0000  0.0007  0.0027  0.0304  0.1194  0.3377  0.5091
 SCF Error: norm([F,P])=      0.000021375760, max([F,P])=      0.000005685117
 orbitals (Q,E):
 ---------------
 A :8...18           ( 2.00    -0.5450)  ( 2.00    -0.4749)  ( 2.00    -0.4525)  ( 2.00    -0.4356)
                     ( 2.00    -0.4160)  ( 2.00    -0.3554)  ( 2.00    -0.3285)  ( 2.00    -0.3281)
                     ( 2.00    -0.2669)  ( 2.00    -0.2350)  ( 0.00    -0.0888)

 CYCLE   13
  SDIIS (wt  1.000):  0.0000 -0.0000  0.0000  0.0001  0.0003  0.0044  0.0216  0.0920  0.1711  0.7104
  DIIS coefficients:  0.0000 -0.0000  0.0000  0.0001  0.0003  0.0044  0.0216  0.0920  0.1711  0.7104
 SCF Error: norm([F,P])=      0.000002332450, max([F,P])=      0.000000471693
 orbitals (Q,E):
 ---------------
 A :8...18           ( 2.00    -0.5450)  ( 2.00    -0.4749)  ( 2.00    -0.4525)  ( 2.00    -0.4356)
                     ( 2.00    -0.4160)  ( 2.00    -0.3554)  ( 2.00    -0.3285)  ( 2.00    -0.3281)
                     ( 2.00    -0.2669)  ( 2.00    -0.2350)  ( 0.00    -0.0888)

 SCF CONVERGED

 CYCLE   14
 ***************************************************************************************************



                                                *******************
                                                *  R E S U L T S  *
                                                *******************
  
 *** Using FIT density in Focky
  SDIIS (wt  1.000):  0.0000  0.0000  0.0000  0.0000  0.0005  0.0031  0.0188  0.0375  0.2471  0.6930
  DIIS coefficients:  0.0000  0.0000  0.0000  0.0000  0.0005  0.0031  0.0188  0.0375  0.2471  0.6930
 SCF Error: norm([F,P])=      0.000000486055, max([F,P])=      0.000000082477

 Scaled ZORA Orbital Energies, per Irrep and Spin:
 =================================================
                        Occup              E (au)              E (eV)       Diff (eV) with prev. cycle
                        -----      --------------------        ------       --------------------------
 A
               8        2.000     -0.54501443326229E+00       -14.831               8.38E-07
               9        2.000     -0.47493014494724E+00       -12.924              -1.26E-06
              10        2.000     -0.45245340667396E+00       -12.312              -4.11E-07
              11        2.000     -0.43564766250175E+00       -11.855               2.49E-07
              12        2.000     -0.41602899051139E+00       -11.321               4.15E-07
              13        2.000     -0.35538999910665E+00        -9.671               9.61E-07
              14        2.000     -0.32845106835588E+00        -8.938              -1.68E-06
              15        2.000     -0.32809726425681E+00        -8.928              -1.68E-06
              16        2.000     -0.26694576445093E+00        -7.264               4.02E-07
              17        2.000     -0.23499421131471E+00        -6.395               1.30E-07
              18        0.000     -0.88767410848481E-01        -2.415
              19        0.000     -0.16352077353935E-01        -0.445
              20        0.000      0.74028877969363E-02         0.201
              21        0.000      0.23608396734089E-01         0.642
              22        0.000      0.33176236612147E-01         0.903
              23        0.000      0.58277844742831E-01         1.586
              24        0.000      0.79856863164738E-01         2.173
              25        0.000      0.11769433532008E+00         3.203
              26        0.000      0.12528051070003E+00         3.409
              27        0.000      0.15701363125135E+00         4.273
  
 HOMO :       17 A                -0.23499421131471E+00
 LUMO :       18 A                -0.88767410848481E-01
  


 All Electron Calculation, thus no Orbital Energies of the Core Orbitals are calculated


 Fit test: (difference of exact and fit density, squared integrated, result summed over spins)
         Sum-of-Fragments:                             0.00000000092729
         Orthogonalized Fragments:                     0.00003741575358
         SCF:                                          0.00012421732317



 ==========================
 Electron Density at Nuclei
 ==========================
  
 The electron density is calculated at points on a small sphere around the center of a nucleus.
 The printed electron density is the average electron density on these points.
 The radius of the sphere is the printed approximate finite nuclear radius.
 Note: ZORA-4 density is used, which includes small component density

         Atom        Nuclear Radius (Angstrom)             Electron Density (a.u.)
         ----        -------------------------             -----------------------
     1)   C                 0.0000320678                              127.20247
     2)   C                 0.0000320678                              127.14326
     3)   F                 0.0000361580                              450.53881
     4)   H                 0.0000181514                                0.43011
     5)   H                 0.0000181514                                0.50678
     6)   H                 0.0000181514                                0.51149
     7)   H                 0.0000181514                                0.50868
     8)   N                 0.0000333706                              206.03475
     9)   H                 0.0000181514                                0.50048
    10)   H                 0.0000181514                                0.50300



 =======================================
 M U L L I K E N   P O P U L A T I O N S
 =======================================
  
 The survey below gives for each atom:
 a) the total charge (Z minus electrons)
 b) the net spin polarization (nr of electrons spin-A minus spin-B)
 c) for each spin the atomic electron valence density (integrated) per L-value.

 Atom              Charge    Spin density          S         P         D         F
 ----              ------    ------------       ------    ------    ------    ------
 1 C               0.3855                       3.0260    2.5448    0.0403    0.0034
 2 C               0.2657                       3.0724    2.5771    0.0795    0.0054
 3 F              -0.4815                       3.9355    5.5223    0.0212    0.0025
 4 H               0.4307                       0.3916    0.1671    0.0106    0.0000
 5 H              -0.1930                       1.1103    0.0772    0.0055    0.0000
 6 H              -0.1536                       1.0692    0.0786    0.0058    0.0000
 7 H              -0.1481                       1.0742    0.0686    0.0054    0.0000
 8 N              -0.0607                       3.3857    3.6272    0.0447    0.0031
 9 H              -0.0208                       0.8910    0.1203    0.0095    0.0000
 10 H             -0.0242                       0.8934    0.1212    0.0096    0.0000

 Populations of individual BAS functions
 ----------------------------------------
 1 C            0.5053  1.4825  0.1855  0.8880 -0.0353  0.1277 -0.1774 -0.1667  0.6297  0.8018
                0.7652  0.1496  0.2056  0.2091 -0.0111  0.0034  0.0082  0.0069  0.0141  0.0188
               -0.0042 -0.0021 -0.0032  0.0003  0.0003  0.0049  0.0001 -0.0011  0.0029  0.0057
 2 C            0.5058  1.4827  0.2391  0.8797 -0.0350  0.1337 -0.1801 -0.1081  0.6676  0.7748
                0.7453  0.1504  0.1903  0.2032 -0.0057  0.0101  0.0142  0.0169  0.0215  0.0225
               -0.0037 -0.0019 -0.0030  0.0009  0.0007  0.0041  0.0011  0.0005  0.0025  0.0041
 3 F            0.5919  1.3835  1.0907  0.8448  0.0246  0.3468  0.4059  0.4022  0.8991  0.9995
                0.9944  0.4357  0.5240  0.5147  0.0207  0.0042  0.0063 -0.0059  0.0007 -0.0048
                0.0119  0.0069  0.0078 -0.0063  0.0003 -0.0049 -0.0052 -0.0020 -0.0011 -0.0048
 4 H           -0.2769  0.2725  0.3960  0.0736  0.0443  0.0492  0.0109  0.0027  0.0029 -0.0040
                0.0007 -0.0026
 5 H            0.1825  0.6041  0.3236  0.0224  0.0314  0.0233 -0.0054  0.0008  0.0008  0.0061
                0.0014  0.0018
 6 H            0.1207  0.6170  0.3315  0.0232  0.0337  0.0216 -0.0039  0.0013  0.0004  0.0109
                0.0017 -0.0047
 7 H            0.1293  0.6190  0.3259  0.0206  0.0307  0.0173 -0.0041  0.0013  0.0004  0.0112
                0.0015 -0.0049
 9 H           -0.0272  0.5861  0.3321  0.0436  0.0345  0.0422  0.0062  0.0019  0.0017  0.0025
                0.0015 -0.0045
 10 H          -0.0265  0.5977  0.3222  0.0352  0.0340  0.0520  0.0004  0.0015  0.0018 -0.0002
                0.0019  0.0042
 8 N            0.5501  1.4308 -0.0337  0.9984  0.4400  0.1876  0.1688  0.2055  0.8272  0.8193
                0.8591  0.1887  0.0642  0.3069  0.0021  0.0129  0.0077  0.0106  0.0122 -0.0008
               -0.0022  0.0008  0.0004  0.0034  0.0008 -0.0005 -0.0002  0.0030  0.0002 -0.0026

 Gross Charges per Atom (Z minus electrons)
 ==========================================
             0.3855    0.2657   -0.4815    0.4307   -0.1930   -0.1536   -0.1481   -0.0607   -0.0208   -0.0242
 Net Total: -0.00000000


 Atom-Atom Population Matrix (off-diagonal elements not doubled)
 ===============================================================

     1 :     4.3824
     2 :     0.5983    4.5533
     3 :    -0.0091    0.0071    9.1419
     4 :     0.0285    0.0449    0.3313    0.2058
     5 :     0.3816   -0.0385    0.0018   -0.0089    0.9766
     6 :     0.4096   -0.0555    0.0011   -0.0073   -0.1002    0.9421
     7 :    -0.0842    0.3952    0.0035   -0.0120   -0.0319    0.0066    0.9419
     8 :    -0.0573    0.3501   -0.0015   -0.0079    0.0124   -0.0252   -0.0772    5.9792
     9 :    -0.0063   -0.0532    0.0035   -0.0006   -0.0012   -0.0032    0.0028    0.4461    0.6766
    10 :    -0.0290   -0.0675    0.0019   -0.0045    0.0012   -0.0145    0.0033    0.4419   -0.0437    0.7351



 =================================================
 H I R S H F E L D   C H A R G E   A N A L Y S I S
 =================================================
  
 For each fragment: the (numerical) integral of rho(scf) * rho(fragment)/rho(sum-of-fragments)
 (nuclear charges are included, electrons are counted negative)

 The fragments and their ordering are defined in the early G E O M E T R Y output section.
 If you use single-atom fragments, this usually implies that all atoms of the same
 chemical type are grouped together. This may not be the order in which you listed them
 in the input file!

  Fragment                       Charge
 ------------------------------------------
    1  C                        -0.0584
    2  C                         0.0225
    3  F                        -0.2382
    4  H                         0.1142
    5  H                         0.0503
    6  H                         0.0523
    7  H                         0.0534
    8  H                         0.1087
    9  H                         0.1054
   10  N                        -0.2103

 Sum of these charges =          0.00000623
 (accuracy NumInt/Tails)



 =============================
 V O R O N O I   C H A R G E S
 =============================
  
 For each atom: the (numerical) integral of the total electronic charge density in its Voronoi cell,
 i.e. the region of space that is closer to that atom than to any other atom.
 (cf. Wigner-Seitz cells in crystals)

 Within the Voronoi cell the subintegrals over the atomic sphere and the remaining part are evaluated
 separately to give the numbers of electrons (negative charge) in these regions.
 The net total charge in the cell (including the nuclear charge) is also given.

 Values are provided for
    a) the Initial (sum-of-fragments) density
    b) the Orthogonalized-Fragments density
    c) the SCF density
    d) the Voronoi Deformation Density (VDD): the difference SCF-Initial for the complete atomic cell

  Atom                Initial                    OrthFrag                   SCF
             Sphere RestCell NetTotal   Sphere RestCell NetTotal   Sphere RestCell NetTotal      VDD
 -------     ------------------------   ------------------------   ------------------------    -----
    1 C      -2.090   -2.836    1.073   -2.192   -3.029    0.779   -2.110   -2.893    0.997   -0.076
    2 C      -2.091   -3.145    0.764   -2.199   -3.263    0.538   -2.107   -3.164    0.730   -0.034
    3 F      -3.057   -5.521    0.422   -3.132   -5.559    0.309   -3.069   -5.747    0.184   -0.238
    4 H      -0.082   -1.532   -0.613   -0.095   -1.304   -0.399   -0.094   -1.355   -0.449    0.164
    5 H      -0.076   -1.433   -0.509   -0.098   -1.287   -0.385   -0.110   -1.352   -0.461    0.047
    6 H      -0.076   -1.429   -0.504   -0.099   -1.279   -0.378   -0.110   -1.346   -0.456    0.048
    7 H      -0.075   -1.458   -0.533   -0.097   -1.309   -0.407   -0.109   -1.360   -0.470    0.063
    8 N      -2.326   -3.644    1.030   -2.465   -3.788    0.748   -2.348   -3.837    0.815   -0.215
    9 H      -0.080   -1.472   -0.552   -0.093   -1.311   -0.404   -0.109   -1.327   -0.436    0.116
   10 H      -0.079   -1.499   -0.578   -0.094   -1.309   -0.403   -0.109   -1.344   -0.453    0.125
 ---------------------------------------------------------------------------------------------------
 Total NetCharge:               0.000                     -0.000                      0.000   -0.000
 (accuracy NumInt/Tails)

 Remark: the 'NetTotal' Voronoi charges often do not match the Mulliken and/or Hirshfeld charges very
 well. This is caused by the fact that chemically different atoms are not treated in accordance with
 their relative sizes. (Voronoi cells are defined by boundary planes halfway between the atoms.)
 However, the CHANGES in charge, comparing 'Initial' to 'SCF' for instance, do give a fair indication
 of the flow of charge caused by the relaxation from sum-of-fragments to self-consistency.

 Warning: the absolute accuracy of the VDD charges obtained using the Fuzzy Cells (Becke) integration
 scheme is much poorer than the one obtained with an 'equivalent' Voronoi integration grid. 



 =================================================================
 M U L T I P O L E   D E R I V E D   C H A R G E   A N A L Y S I S
 =================================================================

 This charge analysis uses the atomic multipoles (obtained from the fitted density) up to some level X,
 and reconstructs these multipoles exactly (up to level X) by distributing charges over all atoms.
 This is achieved by using Lagrange multipliers and a weight function to keep the multipoles local.

 Dummy atoms can be included (by setting INCDUM in MDC-block to 1) to obtain a fractional charge.
 This is generally useful and necessary only for small symmetrical molecules, when there are not
 enough degrees of freedom to reconstruct the multipoles.

 Since the atomic multipoles are reconstructed up to level X,
 the molecular multipoles are represented also up to level X.
 The recommended level is to reconstruct up to quadrupole : -> MDC-q charges.

 See: M. Swart, P.Th. van Duijnen, J.G. Snijders, J.Comput.Chem., (2001), p. 79-88.

 ------------------------------------------------------------- 
 Atomic electronic multipole moments from SCF equations (a.u.)
 ------------------------------------------------------------- 

   atom        charge        dip-x     dip-y     dip-z      quad-xx   quad-xy   quad-xz   quad-yy   quad-yz   quad-zz
 --------------------------------------------------------------------------------------------------------------------
    1 C      0.159587    -0.128586  0.023613 -0.030466    -0.596557 -0.057099  0.175939  0.285859  0.038102  0.310698
    2 C      0.192729     0.037814  0.015544  0.073217    -0.290612 -0.023077  0.133086  0.195041 -0.013708  0.095571
    3 F     -0.260482     0.190509 -0.061806 -0.071874     0.474387 -0.143321 -0.197731 -0.254089  0.065792 -0.220298
    4 H      0.093197     0.001483 -0.002684  0.009421     0.074689 -0.008445 -0.016968 -0.035205  0.006460 -0.039484
    5 H     -0.054561    -0.007423 -0.012882 -0.009249    -0.148137  0.017904  0.037787  0.103180  0.090402  0.044957
    6 H     -0.049423    -0.024373  0.009381  0.000962    -0.095390 -0.063242  0.034831  0.138718 -0.049780 -0.043328
    7 H     -0.046805     0.014515 -0.013681  0.010038    -0.107463 -0.055207  0.036473  0.163328 -0.048736 -0.055865
    8 N     -0.066688    -0.283811  0.212154 -0.403589     0.003796  0.139617 -0.447783  0.379438  0.223579 -0.383234
    9 H      0.022698    -0.044484  0.032111  0.023619     0.067918 -0.050601 -0.070421  0.035101  0.058180 -0.103018
   10 H      0.009747     0.035532  0.019576 -0.030055     0.004479  0.069273 -0.090000  0.002439 -0.032077 -0.006918

 --------------------------------------- 
 Multipole derived atomic charges (a.u.)
 --------------------------------------- 

 The MDC-m charges are just the Monopole terms in the multipole expansion, while for the MDC-d charges
 also the Dipoles are reconstructed. The usually preferred charges are the MDC-q charges.
 These reconstruct the Monopoles, Dipoles and Quadrupoles (both atomic AND molecular).

        Atom    Level:     MDC-m        MDC-d        MDC-q
 ---------------------------------------------------------
     1     C            0.159587     0.055271    -0.360501
     2     C            0.192729     0.261209     0.420460
     3     F           -0.260482    -0.373137    -0.379486
     4     H            0.093197     0.238042     0.228461
     5     H           -0.054561    -0.018567     0.105028
     6     H           -0.049423     0.015362     0.162718
     7     H           -0.046805    -0.029705     0.004966
     8     N           -0.066688    -0.629312    -0.787645
     9     H            0.022698     0.260963     0.309355
    10     H            0.009747     0.219873     0.296644

 ------------------------------------------------ 
 Average absolute deviations in atomic multipoles
 ------------------------------------------------ 

 Stated here are the average differences between the atomic multipoles
 and the reconstructed atomic multipoles (from the distributed charges).
 If these values are not zero, this means there are not enough degrees of freedom,
 to be able to reconstruct the atomic multipoles. (This usually happens only
 for small and/or highly symmetric molecules). If this is the case, one could add
 dummy atoms as extra point charges (and setting INCDUM in MDC-block to 1).

 Level:                                 MDC-d        MDC-q
 ---------------------------------------------------------
 Charge   (a.u.)                       0.0000       0.0000
 Dipole   (Debye)                      0.0000       0.0000
 Quad.    (a.u.)                       0.1238       0.0000

 --------------------------------------- 
 Represented molecular multipole moments
 --------------------------------------- 

 Given here are the Molecular multipole moments from the atomic charges, and from the Fit Density.
 Note that the atomic charges represent the latter, NOT the ones from the Exact density.

            Q (a.u.)             Dipole moment (Debye)                                          Quadrupole moment (a.u.)
                                 x         y         z              xx        xy        xz        yy        yz        zz
------------------------------------------------------------------------------------------------------------------------
MDC-m        -0.0000        2.4136   -0.2565   -0.9403         -4.4718    0.7676    4.5561    3.4983   -0.4844    0.9735
MDC-d        -0.0000        1.8828    0.3061   -2.0281         -5.4890    0.8675    3.4079    6.8327   -0.0181   -1.3436
MDC-q        -0.0000        1.8828    0.3061   -2.0281         -6.3653    0.7235    3.7469    8.0495   -0.3608   -1.6842
 
Fit.Dens.    -0.0000        1.8828    0.3061   -2.0281         -6.3653    0.6364    3.5445    8.0495   -0.1917   -1.6842



 =============
 Dipole Moment  ***  (Debye)  ***
 =============
  
 Vector   :         1.88986802      0.30567477     -2.03652470
 Magnitude:         2.79507980

 This molecular dipole moment is calculated with analytic integration



 =========================================
 Quadrupole Moment (Buckingham convention)  ***  (a.u.)  ***
 =========================================
  
      quad-xx        quad-xy        quad-xz        quad-yy        quad-yz        quad-zz
     -6.38938072     0.55104440     3.36304980     8.07498995    -0.02267687    -1.68560923

 This molecular quadrupole moment is calculated with analytic integration



 ===========================
 B O N D I N G   E N E R G Y  ***  (decomposition)  ***
 ===========================
  
*** IMPORTANT NOTE ***

The bond energy is computed as an energy difference between molecule and
fragments. In particular when the fragments are single atoms, they are usually
computed as SPHERICALLY SYMMETRIC and SPIN-RESTRICTED. Obviously, this usually
does NOT represent the true atomic groundstate.

To obtain the 'real' bond energy, (atomic) correction terms must be applied
for the true (multiplet) fragment ground state. See ref: E.J.Baerends,
V.Branchadell, M.Sodupe, Chem.Phys.Lett.265 (1997) 481

General theoretical background on the bond energy decomposition scheme used
here (Morokuma-Ziegler) can be found in the review paper:
F.M. Bickelhaupt and E.J. Baerends,
"Kohn-Sham Density Functional Theory: Predicting and Understanding Chemistry"
In: Rev. Comput. Chem.; Lipkowitz, K. B. and Boyd, D. B., Eds.;
Wiley-VCH: New York, 2000, Vol. 15, 1-86.

Symbols used in the Bickelhaupt-Baerends (BB) paper are given below to make
the direct connection to that paper, where detailed explanations can be found
on the meaning of the various terms.


                                                   hartree              eV         kcal/mol           kJ/mol
                                      --------------------     -----------       ----------      -----------

Pauli Repulsion
  Kinetic (Delta T^0):                  16.372962401573073        445.5310         10274.19         42987.21
  Delta V^Pauli Coulomb:                -8.071583601937951       -219.6390         -5065.00        -21191.94
  Delta V^Pauli LDA-XC:                 -1.998225595468496        -54.3745         -1253.91         -5246.34
  Delta V^Pauli GGA-Exchange:            0.114913513214261          3.1270            72.11           301.71
  Delta V^Pauli GGA-Correlation:        -0.149575941478615         -4.0702           -93.86          -392.71
                                      --------------------     -----------       ----------      -----------
  Total Pauli Repulsion:                 6.268490775902272        170.5743          3933.54         16457.92
 (Total Pauli Repulsion =
  Delta E^Pauli in BB paper)

Steric Interaction
  Pauli Repulsion (Delta E^Pauli):       6.268490775902272        170.5743          3933.54         16457.92
  Electrostatic Interaction:            -1.160392100011149        -31.5759          -728.16         -3046.61
 (Electrostatic Interaction =
  Delta V_elstat in the BB paper)
                                      --------------------     -----------       ----------      -----------
  Total Steric Interaction:              5.108098675891124        138.9984          3205.38         13411.31
 (Total Steric Interaction =
  Delta E^0 in the BB paper)

Orbital Interactions
  A:                                    -6.922656666603585       -188.3751         -4344.03        -18175.43
                                      --------------------     -----------       ----------      -----------
  Total Orbital Interactions:           -6.922656666603585       -188.3751         -4344.03        -18175.43

Alternative Decomposition Orb.Int.
  Kinetic:                             -14.527705593250854       -395.3190         -9116.27        -38142.49
  Coulomb:                               7.208578430803552        196.1554          4523.45         18926.12
  XC:                                    0.396470495843717         10.7885           248.79          1040.93
                                      --------------------     -----------       ----------      -----------
  Total Orbital Interactions:           -6.922656666603585       -188.3751         -4344.03        -18175.43

  Residu (E=Steric+OrbInt+Res):         -0.000136736592271         -0.0037            -0.09            -0.36
  Dispersion Energy:                    -0.011960433956805         -0.3255            -7.51           -31.40

Total Bonding Energy:                   -1.826655161261538        -49.7058         -1146.24         -4795.88


Summary of Bonding Energy (energy terms are taken from the energy decomposition above)
======================================================================================

  Electrostatic Energy:                 -1.160392100011149        -31.5759          -728.16         -3046.61
  Kinetic Energy:                        1.845256808322219         50.2120          1157.92          4844.72
  Coulomb (Steric+OrbInt) Energy:       -0.863141907726670        -23.4873          -541.63         -2266.18
  XC Energy:                            -1.636417527889132        -44.5292         -1026.87         -4296.41
  Dispersion Energy:                    -0.011960433956805         -0.3255            -7.51           -31.40
                                      --------------------     -----------       ----------      -----------
  Total Bonding Energy:                 -1.826655161261537        -49.7058         -1146.24         -4795.88


Correction terms (incorporated in energies above; only for test purposes):

1. Indication of fit-quality: 1st-order fit-correction used in the energy (hartree):   0.0006168536
2. Electrostatic (Fit correction):   0.0000000000

Scaled ZORA energy correction, not included in bonding energy (hartree):           -0.0000322785
 NOTE: This scaled ZORA energy correction should only be used to compare two calculations
 in which the only difference in the calculation is the electron configuration.
 Then the difference in energy of this term should be added to the difference in energy of
 the two electron configurations.
 This term should not be used otherwise.
 In practice it is useful only for core excitation energy calculations.



 =========================================
 F R A G M E N T   E N E R G Y   T E R M S  ***  (summed over all fragments)  ***
 =========================================
  

The energy terms below are (parts of) the Total Energy of the fragments from which the molecule
 is built.

Exchange and Correlation
  Exchange LDA:                        -24.687982974887383       -671.7942        -15491.94        -64818.29
  Exchange GGA:                         -3.074860131175816        -83.6712         -1929.50         -8073.04
  Correlation LDA:                       0.000000000000000          0.0000             0.00             0.00
[...]
      -2.415  0.00    18 A         40.10%     1 P:x            -5.239  0.67     1 C
                                   28.04%     1 P:x            -5.239  0.67     2 C
                                    7.16%     1 S              -6.532  1.00     9 H
                                    6.61%     1 P:z            -5.239  0.67     2 C
                                    4.24%     1 P:z            -5.239  0.67     1 C
                                   -3.43%     2 P:x             4.589  0.00     2 C
                                    2.45%     1 S              -6.532  1.00     4 H
                                    1.95%     2 S               2.394  0.00     9 H
                                    1.94%     2 S             -13.620  2.00     2 C
                                    1.64%     1 P:z            -7.062  1.00    10 N
                                    1.57%     1 P:x            11.051  0.00     6 H
                                    1.24%     1 P:x           -11.127  1.67     3 F
                                    1.22%     1 P:x            11.051  0.00     5 H
                                    1.18%     1 P:y            -5.239  0.67     1 C
                                    1.17%     1 P:x            11.051  0.00     4 H
                                   -1.04%     2 S               2.394  0.00     8 H
      -0.445  0.00    19 A         27.22%     3 S               0.624  0.00     3 F
                                   18.71%     2 S               2.394  0.00     9 H
                                   18.61%     2 S               2.394  0.00     8 H
                                   15.26%     2 S               2.394  0.00     6 H
                                   14.01%     1 S              -6.532  1.00     8 H
                                  -12.79%     2 S               2.394  0.00     4 H
                                   -9.82%     1 S              -6.532  1.00     4 H
                                    9.69%     2 S               2.394  0.00     5 H
                                    8.11%     1 S              -6.532  1.00     9 H
                                    5.92%     1 S              -6.532  1.00     5 H
                                    4.75%     1 S              -6.532  1.00     6 H
                                   -3.09%     3 S              10.158  0.00     1 C
                                   -2.40%     3 S              10.158  0.00     2 C
                                   -2.28%     2 P:y             4.589  0.00     2 C
                                    2.11%     1 P:z            -5.239  0.67     1 C
                                   -1.99%     1 S              -6.532  1.00     7 H
                                    1.52%     1 P:x            -5.239  0.67     2 C
                                    1.50%     1 P:y            -7.062  1.00    10 N
                                    1.37%     3 S              40.869  0.00     4 H
                                    1.34%     1 P:x            11.051  0.00     8 H
                                   -1.19%     2 S             -13.620  2.00     2 C
                                   -1.03%     1 P:y            -5.239  0.67     2 C
       0.201  0.00    20 A         34.16%     2 S               2.394  0.00     7 H
                                   32.38%     1 S              -6.532  1.00     7 H
                                   29.21%     2 S               2.394  0.00     5 H
                                  -21.60%     2 P:y             4.589  0.00     2 C
                                   19.00%     1 S              -6.532  1.00     5 H
                                  -10.57%     2 P:y             4.589  0.00     1 C
                                    7.04%     1 S              -6.532  1.00     8 H
                                    6.83%     1 S              -6.532  1.00     9 H
                                    3.88%     2 S               2.394  0.00     8 H
                                    3.56%     2 S               2.394  0.00     9 H
                                   -3.51%     1 P:y            -5.239  0.67     2 C
                                    3.11%     3 S               0.624  0.00     3 F
                                   -2.84%     2 P:y             7.649  0.00    10 N
                                   -2.46%     3 S              10.158  0.00     1 C
                                   -2.31%     2 S               2.394  0.00     6 H
                                   -1.97%     3 S              10.158  0.00     2 C
                                   -1.93%     1 S              -6.532  1.00     4 H
                                    1.58%     1 P:y            11.051  0.00     7 H
                                    1.37%     2 S             -13.620  2.00     2 C
                                   -1.35%     2 S               2.394  0.00     4 H
                                   -1.18%     1 P:y            -5.239  0.67     1 C
                                    1.17%     1 P:z            -5.239  0.67     2 C
                                   -1.05%     2 P:z             4.589  0.00     1 C
       0.642  0.00    21 A         31.89%     1 S              -6.532  1.00     6 H
                                   26.69%     2 S               2.394  0.00     6 H
                                   17.91%     1 S              -6.532  1.00     7 H
                                   15.42%     2 S               2.394  0.00     7 H
                                   14.56%     2 S               2.394  0.00     5 H
                                  -11.74%     2 P:z             4.589  0.00     1 C
                                  -10.00%     2 P:z             4.589  0.00     2 C
                                    7.83%     1 S              -6.532  1.00     8 H
                                    7.10%     1 S              -6.532  1.00     5 H
                                    6.39%     2 S               2.394  0.00     8 H
                                   -5.31%     3 S              10.158  0.00     1 C
                                   -4.20%     2 P:y             4.589  0.00     2 C
                                    3.43%     2 S             -13.620  2.00     1 C
                                   -3.10%     1 P:z            -5.239  0.67     1 C
                                   -2.84%     1 P:z            -5.239  0.67     2 C
                                    2.48%     1 P:y            -5.239  0.67     2 C
                                   -2.36%     2 P:x             4.589  0.00     1 C
                                   -1.70%     3 S              10.158  0.00     2 C
                                   -1.67%     2 P:y             4.589  0.00     1 C
                                    1.63%     1 S              -6.532  1.00     9 H
                                   -1.62%     3 S              14.073  0.00    10 N
                                    1.51%     2 S               2.394  0.00     9 H
                                    1.03%     2 S             -18.450  2.00    10 N
       0.903  0.00    22 A         57.16%     3 S               0.624  0.00     3 F
                                   25.88%     1 S              -6.532  1.00     9 H
                                   19.62%     2 S               2.394  0.00     9 H
                                  -12.99%     1 S              -6.532  1.00     4 H
                                   -8.94%     2 P:x             7.649  0.00    10 N
                                    8.11%     1 S              -6.532  1.00     8 H
                                   -3.61%     2 S               2.394  0.00     4 H
                                    3.17%     1 S              -6.532  1.00     7 H
                                    2.99%     2 S               2.394  0.00     8 H
                                   -2.28%     2 P:z             7.649  0.00    10 N
                                    1.90%     2 P:z             4.589  0.00     1 C
                                    1.79%     1 P:x            -7.062  1.00    10 N
                                    1.55%     2 P:z             4.589  0.00     2 C
                                    1.47%     2 S               2.394  0.00     7 H
                                    1.16%     3 S              40.869  0.00     9 H
                                   -1.02%     1 P:x            -5.239  0.67     2 C
                                    1.00%     1 P:z            -7.062  1.00    10 N
       1.586  0.00    23 A         34.95%     1 S              -6.532  1.00     5 H
                                  -26.54%     2 P:y             4.589  0.00     1 C
                                   19.05%     1 S              -6.532  1.00     6 H
                                   12.79%     2 S               2.394  0.00     7 H
                                   12.63%     1 S              -6.532  1.00     8 H
                                   10.28%     3 S               0.624  0.00     3 F
                                   10.08%     1 P:y            -5.239  0.67     1 C
                                   10.06%     1 S              -6.532  1.00     7 H
                                    8.80%     2 S               2.394  0.00     6 H
                                    6.92%     2 S               2.394  0.00     5 H
                                    4.36%     2 S             -13.620  2.00     2 C
                                   -3.70%     2 P:y             4.589  0.00     2 C
                                   -3.39%     3 S              10.158  0.00     2 C
                                   -3.30%     2 P:z             4.589  0.00     1 C
                                   -3.27%     1 S              -6.532  1.00     4 H
                                    2.99%     3 S              40.869  0.00     5 H
                                   -2.49%     1 P:y            -5.239  0.67     2 C
                                    2.45%     1 P:x            -7.062  1.00    10 N
                                    1.69%     1 P:y            -7.062  1.00    10 N
                                    1.53%     3 S              40.869  0.00     6 H
                                    1.44%     1 P:z            -5.239  0.67     2 C
                                    1.36%     3 S              40.869  0.00     8 H
                                   -1.21%     2 P:z             4.589  0.00     2 C
                                    1.20%     2 S             -18.450  2.00    10 N
                                   -1.16%     2 P:x             7.649  0.00    10 N
                                   -1.06%     2 P:z             7.649  0.00    10 N
                                   -1.04%     2 S               2.394  0.00     4 H
                                    1.02%     3 S              40.869  0.00     7 H
       2.173  0.00    24 A         16.32%     1 S              -6.532  1.00     9 H
                                   15.74%     3 S               0.624  0.00     3 F
                                   12.96%     1 S              -6.532  1.00     6 H
                                   12.22%     2 S               2.394  0.00     8 H
                                   11.00%     1 S              -6.532  1.00     8 H
                                    9.90%     1 S              -6.532  1.00     4 H
                                    9.56%     1 S              -6.532  1.00     7 H
                                   -6.77%     2 P:x             7.649  0.00    10 N
                                   -6.30%     2 P:y             4.589  0.00     1 C
                                    5.45%     1 P:x            -5.239  0.67     2 C
                                    5.29%     2 S               2.394  0.00     4 H
                                   -4.75%     2 S               2.394  0.00     9 H
                                   -4.19%     2 P:x             4.589  0.00     2 C
                                    3.92%     2 S               2.394  0.00     5 H
                                   -3.61%     2 P:z             7.649  0.00    10 N
                                    3.08%     1 P:x            -7.062  1.00    10 N
                                   -2.63%     2 P:y             4.589  0.00     2 C
                                    2.44%     2 S               2.394  0.00     7 H
                                    2.44%     3 S              40.869  0.00     9 H
                                    2.03%     1 P:y            -5.239  0.67     2 C
                                    1.72%     2 P:z             4.589  0.00     2 C
                                    1.70%     3 S              40.869  0.00     8 H
                                   -1.61%     1 P:x            11.051  0.00     4 H
                                   -1.45%     2 P:x            11.654  0.00     3 F
                                    1.39%     2 S               2.394  0.00     6 H
                                    1.33%     1 P:x            -5.239  0.67     1 C
                                    1.30%     3 S              40.869  0.00     6 H
                                    1.24%     2 S             -13.620  2.00     1 C
                                    1.21%     1 P:y            -5.239  0.67     1 C



 =======================================================================
 Electrostatic potential at the Nuclei due to electrons and other nuclei
 =======================================================================
  
         Atom                  Potential
         ----                  ---------
     1)   C                  14.76761762
     2)   C                  14.73499596
     3)   F                  26.67830556
     4)   H                   0.94505453
     5)   H                   1.08168378
     6)   H                   1.07552109
     7)   H                   1.08284449
     8)   N                  18.41107534
     9)   H                   1.03475615
    10)   H                   1.03801484
 Mulliken charges used for AMS results%charges...


    =====================
     CALCULATION RESULTS
    =====================

Energy (hartree)            -1.82665516


--------------
Atomic charges
--------------
  Index   Atom    Charge
      1      C    0.3855
      2      C    0.2657
      3      F   -0.4815
      4      H    0.4307
      5      H   -0.1930
      6      H   -0.1536
      7      H   -0.1481
      8      N   -0.0607
      9      H   -0.0208
     10      H   -0.0242


Dipole moment vector    (Debye):     1.88986802    0.30567477   -2.03652470
              magnitude (Debye):     2.79507980


-----------------------
Molecular orbitals info
-----------------------
n orbitals:              170
n spin:                    1

Note: only printing virtual orbitals with
      energy smaller than HOMO + 100. eV

HOMO (eV):              -6.3945
LUMO (eV):              -2.4155
HOMO-LUMO gap (eV):      3.9790

   Index   Energy (eV)    Occupation
     110       92.9642         0.000       
     109       92.1226         0.000       
     108       90.9460         0.000       
     107       89.9051         0.000       
     106       86.6662         0.000       
     105       85.6323         0.000       
     104       83.4333         0.000       
     103       82.6504         0.000       
     102       81.5114         0.000       
     101       80.9533         0.000       
     100       78.9193         0.000       
      99       77.8108         0.000       
      98       76.8390         0.000       
      97       76.6274         0.000       
      96       74.6143         0.000       
      95       73.5897         0.000       
      94       72.8281         0.000       
      93       72.1618         0.000       
      92       70.8701         0.000       
      91       69.0454         0.000       
      90       67.6803         0.000       
      89       67.0560         0.000       
      88       65.8614         0.000       
      87       64.8226         0.000       
      86       64.0566         0.000       
      85       61.5339         0.000       
      84       59.5898         0.000       
      83       58.7698         0.000       
      82       56.3539         0.000       
      81       55.3276         0.000       
      80       53.5709         0.000       
      79       51.9427         0.000       
      78       51.0536         0.000       
      77       50.5484         0.000       
      76       49.9059         0.000       
      75       48.5809         0.000       
      74       47.6346         0.000       
      73       46.6604         0.000       
      72       44.1249         0.000       
      71       42.9049         0.000       
      70       40.1157         0.000       
      69       38.8887         0.000       
      68       37.0642         0.000       
      67       35.9478         0.000       
      66       35.6602         0.000       
      65       34.2185         0.000       
      64       33.2044         0.000       
      63       32.5414         0.000       
      62       32.1112         0.000       
      61       31.8093         0.000       
      60       30.9876         0.000       
      59       30.4529         0.000       
      58       28.4366         0.000       
      57       27.6300         0.000       
      56       26.5484         0.000       
      55       25.6635         0.000       
      54       25.4985         0.000       
      53       24.2412         0.000       
      52       22.6153         0.000       
      51       22.1109         0.000       
      50       21.2165         0.000       
      49       20.1007         0.000       
      48       18.6602         0.000       
      47       18.0364         0.000       
      46       16.8514         0.000       
      45       16.3491         0.000       
      44       15.5875         0.000       
      43       14.4840         0.000       
      42       13.0913         0.000       
      41       12.7444         0.000       
      40       11.6744         0.000       
      39       11.1402         0.000       
      38       10.7580         0.000       
      37        9.7277         0.000       
      36        9.4066         0.000       
      35        8.5262         0.000       
      34        7.7838         0.000       
      33        7.4277         0.000       
      32        7.2189         0.000       
      31        6.8884         0.000       
      30        5.9913         0.000       
      29        4.9859         0.000       
      28        4.4993         0.000       
      27        4.2726         0.000       
      26        3.4091         0.000       
      25        3.2026         0.000       
      24        2.1730         0.000       
      23        1.5858         0.000       
      22        0.9028         0.000       
      21        0.6424         0.000       
      20        0.2014         0.000       
      19       -0.4450         0.000       
      18       -2.4155         0.000 < LUMO
      17       -6.3945         2.000 < HOMO
      16       -7.2640         2.000       
      15       -8.9280         2.000       
      14       -8.9376         2.000       
      13       -9.6707         2.000       
      12      -11.3207         2.000       
      11      -11.8546         2.000       
      10      -12.3119         2.000       
       9      -12.9235         2.000       
       8      -14.8306         2.000       
       7      -18.7034         2.000       
       6      -22.7587         2.000       
       5      -29.0086         2.000       
       4     -270.6977         2.000       
       3     -271.4903         2.000       
       2     -381.7332         2.000       
       1     -660.5837         2.000       

AMS application finished. Exiting.
NORMAL TERMINATION
     Total cpu time:      20.90
  Total system time:       0.30
 Total elapsed time:      21.27
NORMAL TERMINATION
