
 *******************************************************************************
 *                                                                             *
 *  --------------------------------                                           *
 *   Amsterdam Modeling Suite (AMS)              2026.103                      *
 *  --------------------------------                                           *
 *                                               r260501 2026-05-01 873454b5   *
 *                                                                             *
 *                                                                             *
 *                              =================                              *
 *                              |               |                              *
 *                              |     A M S     |                              *
 *                              |               |                              *
 *                              =================                              *
 *                                                                             *
 *                                                                             *
 *   Online information and documentation:  https://www.scm.com/support/       *
 *   E-mail:  support@scm.com   info@scm.com                                   *
 *                                                                             *
 *   Scientific publications using AMS results must be properly referenced     *
 *   See the User Manuals (or the web site) for recommended citations          *
 *   The terms and conditions of the End User License Agreement apply to       *
 *   the use of AMS, https://www.scm.com/license-terms/                        *
 *                                                                             *
 **********************  x86_64_linux_intel / intelmpi  ************************
 
 Licensed to: Jong-June Jeon / University of Seoul 2026-06-02 13:44:15
 SCM User ID: u30731
  
 AMS 2026.103  RunTime: Jun04-2026 11:43:03  ShM Nodes: 1  Procs: 1

 AMS jobname: c3_eda
 AMS jobid  : 754239568

 Start   directory: /gpfs/home1/yeseo1ee/projects/eda-asm-prediction/ADF_800/adf_outputs/batch_005/qmrxn20_e2_E_B_A_B_B_A/
 Results directory: /gpfs/home1/yeseo1ee/projects/eda-asm-prediction/ADF_800/adf_outputs/batch_005/qmrxn20_e2_E_B_A_B_B_A/c3_eda.results/
 Scratch directory: /tmp/amstmp_c3_eda_kid0.754239568/

 RNG seed: 1525843241 -1505568582 2062916970 -583312809 -1113433354 -1301815780 -1959148348 1592410549



                      ************************************************************************
                      *  ADF 2026.103  RunTime: Jun04-2026 11:43:04  ShM Nodes: 1  Procs: 1  *
                      ************************************************************************
  

       ****************************
       * SINGLE POINT CALCULATION *
       ****************************

--------
Geometry
--------
Formula: C2H5ClN3O4
Atoms
  Index Symbol   x (angstrom)   y (angstrom)   z (angstrom)
      1      H    -2.62061347    -0.94805349     1.26438246 adf.f=fA
      2      C    -0.21142942    -0.11749600    -0.29770057 adf.f=fB
      3      C    -0.22753964    -0.06531345     1.19674049 adf.f=fB
      4     Cl     1.50838142    -0.09728237    -1.03248175 adf.f=fB
      5      H    -1.37159420    -0.37970013     1.43700104 adf.f=fB
      6      H     0.04721324     0.90461729     1.59181572 adf.f=fB
      7      N    -0.96998789    -1.13455127    -0.80512598 adf.f=fB
      8      H    -1.24096542    -0.97522015    -1.76550910 adf.f=fB
      9      H    -1.78034573    -1.28768512    -0.16300539 adf.f=fB
     10      N     0.59875453    -1.06154211     1.85528308 adf.f=fB
     11      O     0.65556800    -2.19950469     1.38554056 adf.f=fB
     12      O     1.13269198    -0.72150373     2.92155374 adf.f=fB
     13      N    -0.70992026     1.31048699    -0.80014654 adf.f=fB
     14      O    -1.39469754     1.30435829    -1.81812137 adf.f=fB
     15      O    -0.37591560     2.31251995    -0.18039637 adf.f=fB

Total System Charge             -1.00000


----------------
ADF Engine Input
----------------
 
   Basis
     Type TZ2P
     Core None
   End
   XC
     GGA BLYP
     Dispersion GRIMME3 BJDAMP
   End
   Symmetry NOSYM
   NumericalQuality Normal
   Unrestricted No
   SCF
     Iterations 200
     Converge 1.0e-6
   End
   fragments
     fA c1_fragA_ts.results/adf.rkf
     fB c2_fragB_ts.results/adf.rkf
   end
   etsnocv
     enocv 0.05
     ekmin 0.5
   end
   print etslowdin
   Save TAPE21
 

 Title: *** (NO TITLE) ***

 *** adf ***



 ===========================
 A T T A C H E D   F I L E S
 ===========================
  



 ===============================
 M O D E L   P A R A M E T E R S
 ===============================
  
 DENSITY FUNCTIONAL POTENTIAL (scf)
    LDA:                               Exchange only                           == Not Default ==
    Gradient Corrections:              Becke88 LYP                             == Not Default ==

 SPIN  (restricted / unrestr.)
    Molecule:                          Restricted                               
    Fragments:                         Restricted                               

 OTHER ASPECTS
    Relativistic Corrections:          scalar (ZORA,MAPA)                       

    Nuclear Charge Density Model:      Point Charge Nuclei                      
    Core Treatment:                    Frozen Orbital(s)                        

    Hyperfine or Zeeman Interaction:   ---                                      

 Settings for Grimme D3 dispersion correction

      damping                        BJ
      s6                          1.000
      s8                          2.700
      a1                          0.430
      a2                          4.236

 Other (technical) parameters

      alpha                      14.000
      version                         4
 


 Fragment File(s)
 ----------------
 fA:
         file : c1_fragA_ts.results/adf.rkf
         jobid: 2140410831
         title: *** adf ***
 fB:
         file : c2_fragB_ts.results/adf.rkf
         jobid: 1842002554
         title: *** adf ***



 ===============
 G E O M E T R Y  ***  3D  Molecule  ***
 ===============
  

 ATOMS
 =====                            X Y Z                    CHARGE
                                (Angstrom)             Nucl     +Core       At.Mass
                       --------------------------    ----------------       -------
    1  H              -2.6206   -0.9481    1.2644      1.00      1.00        1.0078
    2  C              -0.2114   -0.1175   -0.2977      6.00      6.00       12.0000
    3  C              -0.2275   -0.0653    1.1967      6.00      6.00       12.0000
    4  Cl              1.5084   -0.0973   -1.0325     17.00     17.00       34.9689
    5  H              -1.3716   -0.3797    1.4370      1.00      1.00        1.0078
    6  H               0.0472    0.9046    1.5918      1.00      1.00        1.0078
    7  N              -0.9700   -1.1346   -0.8051      7.00      7.00       14.0031
    8  H              -1.2410   -0.9752   -1.7655      1.00      1.00        1.0078
    9  H              -1.7803   -1.2877   -0.1630      1.00      1.00        1.0078
   10  N               0.5988   -1.0615    1.8553      7.00      7.00       14.0031
   11  O               0.6556   -2.1995    1.3855      8.00      8.00       15.9949
   12  O               1.1327   -0.7215    2.9216      8.00      8.00       15.9949
   13  N              -0.7099    1.3105   -0.8001      7.00      7.00       14.0031
   14  O              -1.3947    1.3044   -1.8181      8.00      8.00       15.9949
   15  O              -0.3759    2.3125   -0.1804      8.00      8.00       15.9949


 FRAGMENTS
 =========                                     Atoms in this Fragment     Cart. coord.s (Angstrom)
                                               -------------------------------------------------------
    1  fA                                                1  H           -2.6206   -0.9481    1.2644
    2  fB                                                2  C           -0.2114   -0.1175   -0.2977
                                                         3  C           -0.2275   -0.0653    1.1967
                                                         4  Cl           1.5084   -0.0973   -1.0325
                                                         5  H           -1.3716   -0.3797    1.4370
                                                         6  H            0.0472    0.9046    1.5918
                                                         8  H           -1.2410   -0.9752   -1.7655
                                                         9  H           -1.7803   -1.2877   -0.1630
                                                         7  N           -0.9700   -1.1346   -0.8051
                                                        10  N            0.5988   -1.0615    1.8553
                                                        13  N           -0.7099    1.3105   -0.8001
                                                        11  O            0.6556   -2.1995    1.3855
                                                        12  O            1.1327   -0.7215    2.9216
                                                        14  O           -1.3947    1.3044   -1.8181
                                                        15  O           -0.3759    2.3125   -0.1804


 Interatomic Distance Matrix (Angstrom)
 --------------------------------------

   1)     0.000
   2)     2.989   0.000
   3)     2.552   1.495   0.000
   4)     4.801   1.870   2.826   0.000
   5)     1.383   2.103   1.211   3.804   0.000
   6)     3.264   2.164   1.083   3.166   1.920   0.000
   7)     2.654   1.366   2.388   2.696   2.400   3.307   0.000
   8)     3.329   1.987   3.260   2.978   3.260   4.058   1.011   0.000
   9)     1.691   1.962   2.399   3.604   1.885   3.350   1.045   1.719   0.000
  10)     3.275   2.487   1.452   3.177   2.127   2.059   3.089   4.062   3.128   0.000
  11)     3.509   2.814   2.317   3.316   2.725   3.170   2.928   3.876   3.027   1.232
          0.000
  12)     4.109   3.540   2.293   4.021   2.931   2.364   4.299   5.260   4.280   1.240
          2.184   0.000
  13)     3.607   1.594   2.472   2.638   2.881   2.542   2.459   2.537   2.881   3.793
          4.355   4.623   0.000
  14)     4.010   2.394   3.511   3.318   3.665   3.724   2.675   2.285   3.099   4.803
          5.171   5.741   1.227   0.000
  15)     4.214   2.438   2.752   3.175   3.295   2.303   3.553   3.751   3.864   4.059
          4.886   4.594   1.225   2.176   0.000

 Min. Distance =    1.0105
 Max. Distance =    5.7408



 =====================================
 S Y M M E T R Y ,   E L E C T R O N S
 =====================================
  
 Symmetry: NOSYM

 Irreducible Representations, including subspecies
 -------------------------------------------------
 A


 Configuration of Valence Electrons
 ==================================
 ( determined in the SCF procedure )

 Total:   88

 Net Charge: -1 (Nuclei minus Electrons)

 Aufbau principle for MO occupations will be applied through SCF cycle no.     100
 Thereafter, the program will assign electrons to MOs that are spatially
 similar to the occupied MOs in a "reference" cycle ("KeepOrbitals").
 The reference cycle is always the PREVIOUS cycle: it will evolve with
 the SCF procedure.
 ***************************************************************************************************



                                      ****************************************
                                      *  B U I L D : (Fragments, Functions)  *
                                      ****************************************
  

 The individual fragments are copies of the corresponding 'Master' fragments defined on the fragment files.
 However, they may have been rotated (and translated) with respect to the Master. The local coordinate axes
 of each fragment (which define for instance the spatial orientation in the current molecule of a fragment
 P:x orbital) are not necessarily those of the molecule.
 The local frame (if different from the molecular one) is printed to enable an interpretation of the expan-
 sion of an MO in Fragment Orbitals.



                                              ************************
                                              *  Fragment Type : fA  *
                                              ************************
  

 Fragment no.    1   (in the list of all fragments)
 -----------------
 The local coordinate frame is identical to the molecular frame.

 Check Atomic Coordinates:

                  Master (on file)          After Computed Tranformation               As specified on Input
           ----------------------------     ----------------------------     ---------------------------------
     1)    -2.62061  -0.94805   1.26438     -2.62061  -0.94805   1.26438       1  -2.62061  -0.94805   1.26438



                                              ************************
                                              *  Fragment Type : fB  *
                                              ************************
  

 Fragment no.    2   (in the list of all fragments)
 -----------------
 The local coordinate frame is identical to the molecular frame.

 Check Atomic Coordinates:

                  Master (on file)          After Computed Tranformation               As specified on Input
           ----------------------------     ----------------------------     ---------------------------------
     1)    -0.21143  -0.11750  -0.29770     -0.21143  -0.11750  -0.29770       2  -0.21143  -0.11750  -0.29770
     2)    -0.22754  -0.06531   1.19674     -0.22754  -0.06531   1.19674       3  -0.22754  -0.06531   1.19674
     3)     1.50838  -0.09728  -1.03248      1.50838  -0.09728  -1.03248       4   1.50838  -0.09728  -1.03248
     4)    -1.37159  -0.37970   1.43700     -1.37159  -0.37970   1.43700       5  -1.37159  -0.37970   1.43700
     5)     0.04721   0.90462   1.59182      0.04721   0.90462   1.59182       6   0.04721   0.90462   1.59182
     6)    -1.24097  -0.97522  -1.76551     -1.24097  -0.97522  -1.76551       8  -1.24097  -0.97522  -1.76551
     7)    -1.78035  -1.28769  -0.16301     -1.78035  -1.28769  -0.16301       9  -1.78035  -1.28769  -0.16301
     8)    -0.96999  -1.13455  -0.80513     -0.96999  -1.13455  -0.80513       7  -0.96999  -1.13455  -0.80513
     9)     0.59875  -1.06154   1.85528      0.59875  -1.06154   1.85528      10   0.59875  -1.06154   1.85528
    10)    -0.70992   1.31049  -0.80015     -0.70992   1.31049  -0.80015      13  -0.70992   1.31049  -0.80015
    11)     0.65557  -2.19950   1.38554      0.65557  -2.19950   1.38554      11   0.65557  -2.19950   1.38554
    12)     1.13269  -0.72150   2.92155      1.13269  -0.72150   2.92155      12   1.13269  -0.72150   2.92155
    13)    -1.39470   1.30436  -1.81812     -1.39470   1.30436  -1.81812      14  -1.39470   1.30436  -1.81812
    14)    -0.37592   2.31252  -0.18040     -0.37592   2.31252  -0.18040      15  -0.37592   2.31252  -0.18040



 =======
 S F O s  ***  (Symmetrized Fragment Orbitals)  ***
 =======
  
 SFOs are linear combinations of (valence) Fragment Orbitals (FOs), such that the SFOs transform as the
 irreducible representations of the (molecular) symmetry group. Each SFO is therefore characterized by
 an irrep of the molecule and by a few (or only one) generating FOs.
 The SFOs constitute a symmetry-adapted basis for the Fock matrix. The MO eigenvector coefficients in
 this basis provide a direct interpretation of the MOs in terms of Frontier Orbital Theory.

 The SFOs are combined with auxiliary Core Functions (CFs) to ensure orthogonalization on the (frozen)
 Core Orbitals (COs). The Core-orthogonalized SFOs (CSFOs) constitute the true Fock basis.

 The FOs, and hence also the (C)SFOs are combinations of the elementary basis functions (BAS). The basis
 functions that participate in the description of the SFOs depend on the irrep. The indices of the
 involved functions are printed below for each irrep.
 (The complete list of primitive basis functions is printed in another section)

 Total nr. of (C)SFOs (summation over all irreps) :   323

 NOTE: a (C)SFO that is defined as a combination of more than one FO is usually NOT normalized.



                                       === A ===
 Nr. of SFOs :  323
 Cartesian basis functions that participate in this irrep (total number =   368) :
      1     2     3     4     5     6     7     8     9    10
     11    12    13    14    15    16    17    18    21    24
     19    22    25    20    23    26    27    28    29    30
     31    32    33    34    35    36    37    38    39    40
     41    42    43    44    45    46    47    48    51    54
     49    52    55    50    53    56    57    58    59    60
     61    62    63    64    65    66    67    68    69    70
     71    72    73    74    75    76    83    84    85    77
     80    86    89    92    78    81    87    90    93    79
     82    88    91    94    95    96    97    98    99   100
    101   102   103   104   105   106   107   108   109   110
    111   112   113   114   115   116   117   118   119   120
    121   122   123   124   125   126   127   128   129   130
    131   132   133   134   135   136   137   138   139   140
    141   142   143   144   145   146   147   148   149   150
    151   152   153   154   155   156   157   158   159   160
    161   162   163   164   167   170   165   168   171   166
    169   172   173   174   175   176   177   178   179   180
    181   182   183   184   185   186   187   188   189   190
    191   192   193   194   197   200   195   198   201   196
    199   202   203   204   205   206   207   208   209   210
    211   212   213   214   215   216   217   218   219   220
    221   222   223   224   227   230   225   228   231   226
    229   232   233   234   235   236   237   238   239   240
    241   242   243   244   245   246   247   248   249   250
    251   252   253   254   257   260   255   258   261   256
    259   262   263   264   265   266   267   268   269   270
    271   272   273   274   275   276   277   278   279   280
    281   282   283   284   287   290   285   288   291   286
    289   292   293   294   295   296   297   298   299   300
    301   302   303   304   305   306   307   308   309   310
    311   312   313   314   317   320   315   318   321   316
    319   322   323   324   325   326   327   328   329   330
    331   332   333   334   335   336   337   338   339   340
    341   342   343   344   347   350   345   348   351   346
    349   352   353   354   355   356   357   358   359   360
    361   362   363   364   365   366   367   368

    SFO  (index         Fragment          Generating    Expansion in Fragment Orbitals
  indx  incl.CFs)   Occup   Orb.Energy   FragmentType  Coeff.   Orbital     on Fragment
 --------------------------------------------------------------------------------------
     1       1      2.000       0.096 au  fA            1.00      1 A               1
                        (       2.603 eV)
     2       2       --         0.328 au  fA            1.00      2 A               1
                        (       8.927 eV)
     3       3       --         0.730 au  fA            1.00      3 A               1
                        (      19.877 eV)
     4       4       --         0.730 au  fA            1.00      4 A               1
                        (      19.877 eV)
     5       5       --         0.730 au  fA            1.00      5 A               1
                        (      19.877 eV)
     6       6       --         1.855 au  fA            1.00      6 A               1
                        (      50.479 eV)
     7       7       --         2.938 au  fA            1.00      7 A               1
                        (      79.959 eV)
     8       8       --         2.938 au  fA            1.00      8 A               1
                        (      79.959 eV)
     9       9       --         2.938 au  fA            1.00      9 A               1
                        (      79.959 eV)
    10      10       --         2.938 au  fA            1.00     10 A               1
                        (      79.959 eV)
    11      11       --         2.938 au  fA            1.00     11 A               1
                        (      79.959 eV)
    12      12      2.000    -101.109 au  fB            1.00      1 A               2
                        (   -2751.302 eV)
    13      13      2.000     -18.867 au  fB            1.00      2 A               2
                        (    -513.399 eV)
    14      14      2.000     -18.866 au  fB            1.00      3 A               2
                        (    -513.374 eV)
    15      15      2.000     -18.855 au  fB            1.00      4 A               2
                        (    -513.065 eV)
    16      16      2.000     -18.854 au  fB            1.00      5 A               2
                        (    -513.050 eV)
    17      17      2.000     -14.273 au  fB            1.00      6 A               2
                        (    -388.399 eV)
    18      18      2.000     -14.271 au  fB            1.00      7 A               2
                        (    -388.323 eV)
    19      19      2.000     -14.077 au  fB            1.00      8 A               2
                        (    -383.068 eV)
    20      20      2.000     -10.103 au  fB            1.00      9 A               2
                        (    -274.906 eV)
    21      21      2.000     -10.038 au  fB            1.00     10 A               2
                        (    -273.146 eV)
    22      22      2.000      -9.262 au  fB            1.00     11 A               2
                        (    -252.039 eV)
    23      23      2.000      -7.030 au  fB            1.00     12 A               2
                        (    -191.305 eV)
    24      24      2.000      -7.019 au  fB            1.00     13 A               2
                        (    -190.992 eV)
    25      25      2.000      -7.019 au  fB            1.00     14 A               2
                        (    -190.984 eV)
    26      26      2.000      -1.164 au  fB            1.00     15 A               2
                        (     -31.668 eV)
    27      27      2.000      -1.154 au  fB            1.00     16 A               2
                        (     -31.402 eV)
    28      28      2.000      -1.005 au  fB            1.00     17 A               2
                        (     -27.342 eV)
    29      29      2.000      -0.989 au  fB            1.00     18 A               2
                        (     -26.923 eV)
    30      30      2.000      -0.921 au  fB            1.00     19 A               2
                        (     -25.071 eV)
    31      31      2.000      -0.805 au  fB            1.00     20 A               2
                        (     -21.895 eV)
    32      32      2.000      -0.781 au  fB            1.00     21 A               2
                        (     -21.257 eV)
    33      33      2.000      -0.701 au  fB            1.00     22 A               2
                        (     -19.073 eV)
    34      34      2.000      -0.614 au  fB            1.00     23 A               2
                        (     -16.714 eV)
    35      35      2.000      -0.565 au  fB            1.00     24 A               2
                        (     -15.364 eV)
    36      36      2.000      -0.549 au  fB            1.00     25 A               2
                        (     -14.938 eV)
    37      37      2.000      -0.529 au  fB            1.00     26 A               2
                        (     -14.387 eV)
    38      38      2.000      -0.526 au  fB            1.00     27 A               2
                        (     -14.306 eV)
    39      39      2.000      -0.508 au  fB            1.00     28 A               2
                        (     -13.828 eV)
    40      40      2.000      -0.493 au  fB            1.00     29 A               2
                        (     -13.404 eV)
    41      41      2.000      -0.490 au  fB            1.00     30 A               2
                        (     -13.343 eV)
    42      42      2.000      -0.481 au  fB            1.00     31 A               2
                        (     -13.076 eV)
    43      43      2.000      -0.447 au  fB            1.00     32 A               2
                        (     -12.165 eV)
    44      44      2.000      -0.421 au  fB            1.00     33 A               2
                        (     -11.469 eV)
    45      45      2.000      -0.392 au  fB            1.00     34 A               2
                        (     -10.675 eV)
    46      46      2.000      -0.335 au  fB            1.00     35 A               2
                        (      -9.124 eV)
    47      47      2.000      -0.319 au  fB            1.00     36 A               2
                        (      -8.670 eV)
    48      48      2.000      -0.308 au  fB            1.00     37 A               2
                        (      -8.377 eV)
    49      49      2.000      -0.302 au  fB            1.00     38 A               2
                        (      -8.221 eV)
    50      50      2.000      -0.299 au  fB            1.00     39 A               2
                        (      -8.138 eV)
    51      51      2.000      -0.294 au  fB            1.00     40 A               2
                        (      -8.013 eV)
    52      52      2.000      -0.282 au  fB            1.00     41 A               2
                        (      -7.686 eV)
    53      53      2.000      -0.270 au  fB            1.00     42 A               2
                        (      -7.334 eV)
    54      54      2.000      -0.263 au  fB            1.00     43 A               2
                        (      -7.147 eV)
    55      55       --        -0.146 au  fB            1.00     44 A               2
                        (      -3.986 eV)
    56      56       --        -0.145 au  fB            1.00     45 A               2
                        (      -3.936 eV)
    57      57       --        -0.082 au  fB            1.00     46 A               2
                        (      -2.241 eV)
    58      58       --        -0.038 au  fB            1.00     47 A               2
                        (      -1.034 eV)
    59      59       --        -0.014 au  fB            1.00     48 A               2
                        (      -0.377 eV)
    60      60       --         0.002 au  fB            1.00     49 A               2
                        (       0.053 eV)
    61      61       --         0.029 au  fB            1.00     50 A               2
                        (       0.776 eV)
    62      62       --         0.047 au  fB            1.00     51 A               2
                        (       1.286 eV)
    63      63       --         0.055 au  fB            1.00     52 A               2
                        (       1.502 eV)
    64      64       --         0.065 au  fB            1.00     53 A               2
                        (       1.779 eV)
    65      65       --         0.110 au  fB            1.00     54 A               2
                        (       2.994 eV)
    66      66       --         0.135 au  fB            1.00     55 A               2
                        (       3.664 eV)
    67      67       --         0.135 au  fB            1.00     56 A               2
                        (       3.680 eV)
    68      68       --         0.154 au  fB            1.00     57 A               2
                        (       4.180 eV)
    69      69       --         0.158 au  fB            1.00     58 A               2
                        (       4.298 eV)
    70      70       --         0.162 au  fB            1.00     59 A               2
                        (       4.402 eV)
    71      71       --         0.204 au  fB            1.00     60 A               2
                        (       5.541 eV)
    72      72       --         0.207 au  fB            1.00     61 A               2
                        (       5.635 eV)
    73      73       --         0.215 au  fB            1.00     62 A               2
                        (       5.845 eV)
    74      74       --         0.218 au  fB            1.00     63 A               2
                        (       5.934 eV)
    75      75       --         0.227 au  fB            1.00     64 A               2
                        (       6.184 eV)
    76      76       --         0.247 au  fB            1.00     65 A               2
                        (       6.719 eV)
    77      77       --         0.255 au  fB            1.00     66 A               2
                        (       6.937 eV)
    78      78       --         0.275 au  fB            1.00     67 A               2
                        (       7.489 eV)
    79      79       --         0.279 au  fB            1.00     68 A               2
                        (       7.583 eV)
    80      80       --         0.284 au  fB            1.00     69 A               2
                        (       7.724 eV)
    81      81       --         0.299 au  fB            1.00     70 A               2
                        (       8.149 eV)
    82      82       --         0.306 au  fB            1.00     71 A               2
                        (       8.327 eV)
    83      83       --         0.327 au  fB            1.00     72 A               2
                        (       8.891 eV)
    84      84       --         0.336 au  fB            1.00     73 A               2
                        (       9.141 eV)
    85      85       --         0.345 au  fB            1.00     74 A               2
                        (       9.385 eV)
    86      86       --         0.355 au  fB            1.00     75 A               2
                        (       9.664 eV)
    87      87       --         0.362 au  fB            1.00     76 A               2
                        (       9.842 eV)
    88      88       --         0.381 au  fB            1.00     77 A               2
                        (      10.362 eV)
    89      89       --         0.392 au  fB            1.00     78 A               2
                        (      10.665 eV)
    90      90       --         0.416 au  fB            1.00     79 A               2
                        (      11.329 eV)
    91      91       --         0.426 au  fB            1.00     80 A               2
                        (      11.589 eV)
    92      92       --         0.441 au  fB            1.00     81 A               2
                        (      11.993 eV)
    93      93       --         0.444 au  fB            1.00     82 A               2
                        (      12.082 eV)
    94      94       --         0.467 au  fB            1.00     83 A               2
                        (      12.711 eV)
    95      95       --         0.473 au  fB            1.00     84 A               2
                        (      12.864 eV)
    96      96       --         0.482 au  fB            1.00     85 A               2
                        (      13.126 eV)
    97      97       --         0.501 au  fB            1.00     86 A               2
                        (      13.631 eV)
    98      98       --         0.525 au  fB            1.00     87 A               2
                        (      14.298 eV)
    99      99       --         0.537 au  fB            1.00     88 A               2
                        (      14.619 eV)
   100     100       --         0.559 au  fB            1.00     89 A               2
                        (      15.213 eV)
   101     101       --         0.578 au  fB            1.00     90 A               2
                        (      15.734 eV)
   102     102       --         0.607 au  fB            1.00     91 A               2
                        (      16.519 eV)
   103     103       --         0.627 au  fB            1.00     92 A               2
                        (      17.052 eV)
   104     104       --         0.648 au  fB            1.00     93 A               2
                        (      17.626 eV)
   105     105       --         0.678 au  fB            1.00     94 A               2
                        (      18.439 eV)
   106     106       --         0.684 au  fB            1.00     95 A               2
                        (      18.609 eV)
   107     107       --         0.715 au  fB            1.00     96 A               2
                        (      19.465 eV)
   108     108       --         0.753 au  fB            1.00     97 A               2
                        (      20.503 eV)
   109     109       --         0.759 au  fB            1.00     98 A               2
                        (      20.649 eV)
   110     110       --         0.796 au  fB            1.00     99 A               2
                        (      21.649 eV)
   111     111       --         0.799 au  fB            1.00    100 A               2
                        (      21.750 eV)
   112     112       --         0.826 au  fB            1.00    101 A               2
                        (      22.478 eV)
   113     113       --         0.856 au  fB            1.00    102 A               2
                        (      23.290 eV)
   114     114       --         0.901 au  fB            1.00    103 A               2
                        (      24.515 eV)
   115     115       --         0.913 au  fB            1.00    104 A               2
                        (      24.834 eV)
   116     116       --         0.936 au  fB            1.00    105 A               2
                        (      25.460 eV)
   117     117       --         0.944 au  fB            1.00    106 A               2
                        (      25.681 eV)
   118     118       --         0.970 au  fB            1.00    107 A               2
                        (      26.394 eV)
   119     119       --         0.981 au  fB            1.00    108 A               2
                        (      26.687 eV)
   120     120       --         1.013 au  fB            1.00    109 A               2
                        (      27.576 eV)
   121     121       --         1.030 au  fB            1.00    110 A               2
                        (      28.023 eV)
   122     122       --         1.053 au  fB            1.00    111 A               2
                        (      28.663 eV)
   123     123       --         1.062 au  fB            1.00    112 A               2
                        (      28.909 eV)
   124     124       --         1.099 au  fB            1.00    113 A               2
                        (      29.903 eV)
   125     125       --         1.132 au  fB            1.00    114 A               2
                        (      30.792 eV)
   126     126       --         1.157 au  fB            1.00    115 A               2
                        (      31.472 eV)
   127     127       --         1.164 au  fB            1.00    116 A               2
                        (      31.668 eV)
   128     128       --         1.193 au  fB            1.00    117 A               2
                        (      32.461 eV)
   129     129       --         1.200 au  fB            1.00    118 A               2
                        (      32.650 eV)
   130     130       --         1.217 au  fB            1.00    119 A               2
                        (      33.110 eV)
   131     131       --         1.239 au  fB            1.00    120 A               2
                        (      33.713 eV)
   132     132       --         1.247 au  fB            1.00    121 A               2
                        (      33.920 eV)
   133     133       --         1.255 au  fB            1.00    122 A               2
                        (      34.145 eV)
   134     134       --         1.263 au  fB            1.00    123 A               2
                        (      34.366 eV)
   135     135       --         1.290 au  fB            1.00    124 A               2
                        (      35.104 eV)
   136     136       --         1.293 au  fB            1.00    125 A               2
                        (      35.171 eV)
   137     137       --         1.311 au  fB            1.00    126 A               2
                        (      35.670 eV)
   138     138       --         1.337 au  fB            1.00    127 A               2
                        (      36.368 eV)
   139     139       --         1.340 au  fB            1.00    128 A               2
                        (      36.468 eV)
   140     140       --         1.355 au  fB            1.00    129 A               2
                        (      36.869 eV)
   141     141       --         1.384 au  fB            1.00    130 A               2
                        (      37.667 eV)
   142     142       --         1.390 au  fB            1.00    131 A               2
                        (      37.825 eV)
   143     143       --         1.441 au  fB            1.00    132 A               2
                        (      39.209 eV)
   144     144       --         1.448 au  fB            1.00    133 A               2
                        (      39.397 eV)
   145     145       --         1.491 au  fB            1.00    134 A               2
                        (      40.579 eV)
   146     146       --         1.502 au  fB            1.00    135 A               2
                        (      40.861 eV)
   147     147       --         1.520 au  fB            1.00    136 A               2
                        (      41.368 eV)
   148     148       --         1.525 au  fB            1.00    137 A               2
                        (      41.505 eV)
   149     149       --         1.566 au  fB            1.00    138 A               2
                        (      42.617 eV)
   150     150       --         1.594 au  fB            1.00    139 A               2
                        (      43.378 eV)
   151     151       --         1.600 au  fB            1.00    140 A               2
                        (      43.540 eV)
   152     152       --         1.645 au  fB            1.00    141 A               2
                        (      44.762 eV)
   153     153       --         1.654 au  fB            1.00    142 A               2
                        (      44.995 eV)
   154     154       --         1.701 au  fB            1.00    143 A               2
                        (      46.294 eV)
   155     155       --         1.748 au  fB            1.00    144 A               2
                        (      47.568 eV)
   156     156       --         1.764 au  fB            1.00    145 A               2
                        (      48.011 eV)
   157     157       --         1.809 au  fB            1.00    146 A               2
                        (      49.226 eV)
   158     158       --         1.846 au  fB            1.00    147 A               2
                        (      50.232 eV)
   159     159       --         1.866 au  fB            1.00    148 A               2
                        (      50.784 eV)
   160     160       --         1.895 au  fB            1.00    149 A               2
                        (      51.556 eV)
   161     161       --         1.925 au  fB            1.00    150 A               2
                        (      52.377 eV)
   162     162       --         1.953 au  fB            1.00    151 A               2
                        (      53.157 eV)
   163     163       --         1.968 au  fB            1.00    152 A               2
                        (      53.539 eV)
   164     164       --         1.980 au  fB            1.00    153 A               2
                        (      53.867 eV)
   165     165       --         2.011 au  fB            1.00    154 A               2
                        (      54.725 eV)
   166     166       --         2.047 au  fB            1.00    155 A               2
                        (      55.698 eV)
   167     167       --         2.065 au  fB            1.00    156 A               2
                        (      56.205 eV)
   168     168       --         2.086 au  fB            1.00    157 A               2
                        (      56.765 eV)
   169     169       --         2.096 au  fB            1.00    158 A               2
                        (      57.040 eV)
   170     170       --         2.120 au  fB            1.00    159 A               2
                        (      57.699 eV)
   171     171       --         2.152 au  fB            1.00    160 A               2
                        (      58.572 eV)
   172     172       --         2.185 au  fB            1.00    161 A               2
                        (      59.467 eV)
   173     173       --         2.227 au  fB            1.00    162 A               2
                        (      60.593 eV)
   174     174       --         2.235 au  fB            1.00    163 A               2
                        (      60.821 eV)
   175     175       --         2.267 au  fB            1.00    164 A               2
                        (      61.685 eV)
   176     176       --         2.287 au  fB            1.00    165 A               2
                        (      62.241 eV)
   177     177       --         2.312 au  fB            1.00    166 A               2
                        (      62.906 eV)
   178     178       --         2.345 au  fB            1.00    167 A               2
                        (      63.808 eV)
   179     179       --         2.356 au  fB            1.00    168 A               2
                        (      64.107 eV)
   180     180       --         2.382 au  fB            1.00    169 A               2
                        (      64.831 eV)
   181     181       --         2.398 au  fB            1.00    170 A               2
                        (      65.246 eV)
   182     182       --         2.501 au  fB            1.00    171 A               2
                        (      68.053 eV)
   183     183       --         2.515 au  fB            1.00    172 A               2
                        (      68.440 eV)
   184     184       --         2.582 au  fB            1.00    173 A               2
                        (      70.265 eV)
   185     185       --         2.592 au  fB            1.00    174 A               2
                        (      70.545 eV)
   186     186       --         2.628 au  fB            1.00    175 A               2
                        (      71.510 eV)
   187     187       --         2.669 au  fB            1.00    176 A               2
                        (      72.616 eV)
   188     188       --         2.697 au  fB            1.00    177 A               2
                        (      73.385 eV)
   189     189       --         2.754 au  fB            1.00    178 A               2
                        (      74.950 eV)
   190     190       --         2.819 au  fB            1.00    179 A               2
                        (      76.712 eV)
   191     191       --         2.884 au  fB            1.00    180 A               2
                        (      78.484 eV)
   192     192       --         2.917 au  fB            1.00    181 A               2
                        (      79.375 eV)
   193     193       --         2.937 au  fB            1.00    182 A               2
                        (      79.914 eV)
   194     194       --         2.962 au  fB            1.00    183 A               2
                        (      80.603 eV)
   195     195       --         3.002 au  fB            1.00    184 A               2
                        (      81.702 eV)
   196     196       --         3.022 au  fB            1.00    185 A               2
                        (      82.223 eV)
   197     197       --         3.071 au  fB            1.00    186 A               2
                        (      83.554 eV)
   198     198       --         3.103 au  fB            1.00    187 A               2
                        (      84.446 eV)
   199     199       --         3.127 au  fB            1.00    188 A               2
                        (      85.082 eV)
   200     200       --         3.176 au  fB            1.00    189 A               2
                        (      86.421 eV)
   201     201       --         3.213 au  fB            1.00    190 A               2
                        (      87.417 eV)
   202     202       --         3.256 au  fB            1.00    191 A               2
                        (      88.609 eV)
   203     203       --         3.263 au  fB            1.00    192 A               2
                        (      88.796 eV)
   204     204       --         3.309 au  fB            1.00    193 A               2
                        (      90.048 eV)
   205     205       --         3.328 au  fB            1.00    194 A               2
                        (      90.570 eV)
   206     206       --         3.334 au  fB            1.00    195 A               2
                        (      90.719 eV)
   207     207       --         3.338 au  fB            1.00    196 A               2
                        (      90.836 eV)
   208     208       --         3.381 au  fB            1.00    197 A               2
                        (      92.004 eV)
   209     209       --         3.392 au  fB            1.00    198 A               2
                        (      92.303 eV)
   210     210       --         3.401 au  fB            1.00    199 A               2
                        (      92.541 eV)
   211     211       --         3.420 au  fB            1.00    200 A               2
                        (      93.062 eV)
   212     212       --         3.435 au  fB            1.00    201 A               2
                        (      93.478 eV)
   213     213       --         3.478 au  fB            1.00    202 A               2
                        (      94.651 eV)
   214     214       --         3.496 au  fB            1.00    203 A               2
                        (      95.128 eV)
   215     215       --         3.505 au  fB            1.00    204 A               2
                        (      95.371 eV)
   216     216       --         3.521 au  fB            1.00    205 A               2
                        (      95.824 eV)
   217     217       --         3.540 au  fB            1.00    206 A               2
                        (      96.321 eV)
   218     218       --         3.555 au  fB            1.00    207 A               2
                        (      96.740 eV)
   219     219       --         3.593 au  fB            1.00    208 A               2
                        (      97.765 eV)
   220     220       --         3.605 au  fB            1.00    209 A               2
                        (      98.106 eV)
   221     221       --         3.638 au  fB            1.00    210 A               2
                        (      98.995 eV)
   222     222       --         3.663 au  fB            1.00    211 A               2
                        (      99.676 eV)
   223     223       --         3.680 au  fB            1.00    212 A               2
                        (     100.139 eV)
   224     224       --         3.723 au  fB            1.00    213 A               2
                        (     101.304 eV)
   225     225       --         3.788 au  fB            1.00    214 A               2
                        (     103.086 eV)
   226     226       --         3.833 au  fB            1.00    215 A               2
                        (     104.289 eV)
   227     227       --         3.861 au  fB            1.00    216 A               2
                        (     105.051 eV)
   228     228       --         3.898 au  fB            1.00    217 A               2
                        (     106.078 eV)
   229     229       --         3.905 au  fB            1.00    218 A               2
                        (     106.265 eV)
   230     230       --         3.931 au  fB            1.00    219 A               2
                        (     106.972 eV)
   231     231       --         3.947 au  fB            1.00    220 A               2
                        (     107.401 eV)
   232     232       --         3.962 au  fB            1.00    221 A               2
                        (     107.822 eV)
   233     233       --         3.978 au  fB            1.00    222 A               2
                        (     108.244 eV)
   234     234       --         4.003 au  fB            1.00    223 A               2
                        (     108.937 eV)
   235     235       --         4.020 au  fB            1.00    224 A               2
                        (     109.384 eV)
   236     236       --         4.048 au  fB            1.00    225 A               2
                        (     110.165 eV)
   237     237       --         4.082 au  fB            1.00    226 A               2
                        (     111.082 eV)
   238     238       --         4.094 au  fB            1.00    227 A               2
                        (     111.412 eV)
   239     239       --         4.105 au  fB            1.00    228 A               2
                        (     111.713 eV)
   240     240       --         4.169 au  fB            1.00    229 A               2
                        (     113.445 eV)
   241     241       --         4.183 au  fB            1.00    230 A               2
                        (     113.836 eV)
   242     242       --         4.250 au  fB            1.00    231 A               2
                        (     115.647 eV)
   243     243       --         4.264 au  fB            1.00    232 A               2
                        (     116.019 eV)
   244     244       --         4.313 au  fB            1.00    233 A               2
                        (     117.365 eV)
   245     245       --         4.328 au  fB            1.00    234 A               2
                        (     117.768 eV)
   246     246       --         4.366 au  fB            1.00    235 A               2
                        (     118.814 eV)
   247     247       --         4.391 au  fB            1.00    236 A               2
                        (     119.483 eV)
   248     248       --         4.409 au  fB            1.00    237 A               2
                        (     119.988 eV)
   249     249       --         4.453 au  fB            1.00    238 A               2
                        (     121.166 eV)
   250     250       --         4.483 au  fB            1.00    239 A               2
                        (     121.977 eV)
   251     251       --         4.502 au  fB            1.00    240 A               2
                        (     122.509 eV)
   252     252       --         4.556 au  fB            1.00    241 A               2
                        (     123.966 eV)
   253     253       --         4.621 au  fB            1.00    242 A               2
                        (     125.746 eV)
   254     254       --         4.672 au  fB            1.00    243 A               2
                        (     127.140 eV)
   255     255       --         4.698 au  fB            1.00    244 A               2
                        (     127.839 eV)
   256     256       --         4.729 au  fB            1.00    245 A               2
                        (     128.693 eV)
   257     257       --         4.743 au  fB            1.00    246 A               2
                        (     129.067 eV)
   258     258       --         4.812 au  fB            1.00    247 A               2
                        (     130.947 eV)
   259     259       --         4.827 au  fB            1.00    248 A               2
                        (     131.353 eV)
   260     260       --         4.891 au  fB            1.00    249 A               2
                        (     133.083 eV)
   261     261       --         4.930 au  fB            1.00    250 A               2
                        (     134.147 eV)
   262     262       --         4.953 au  fB            1.00    251 A               2
                        (     134.789 eV)
   263     263       --         5.051 au  fB            1.00    252 A               2
                        (     137.436 eV)
   264     264       --         5.111 au  fB            1.00    253 A               2
                        (     139.080 eV)
   265     265       --         5.135 au  fB            1.00    254 A               2
                        (     139.720 eV)
   266     266       --         5.210 au  fB            1.00    255 A               2
                        (     141.768 eV)
   267     267       --         5.232 au  fB            1.00    256 A               2
                        (     142.359 eV)
   268     268       --         5.336 au  fB            1.00    257 A               2
                        (     145.196 eV)
   269     269       --         5.363 au  fB            1.00    258 A               2
                        (     145.922 eV)
   270     270       --         5.386 au  fB            1.00    259 A               2
                        (     146.565 eV)
   271     271       --         5.454 au  fB            1.00    260 A               2
                        (     148.398 eV)
   272     272       --         5.561 au  fB            1.00    261 A               2
                        (     151.313 eV)
   273     273       --         5.745 au  fB            1.00    262 A               2
                        (     156.317 eV)
   274     274       --         5.827 au  fB            1.00    263 A               2
                        (     158.557 eV)
   275     275       --         5.878 au  fB            1.00    264 A               2
                        (     159.962 eV)
   276     276       --         5.986 au  fB            1.00    265 A               2
                        (     162.892 eV)
   277     277       --         6.087 au  fB            1.00    266 A               2
                        (     165.647 eV)
   278     278       --         6.194 au  fB            1.00    267 A               2
                        (     168.542 eV)
   279     279       --         6.233 au  fB            1.00    268 A               2
                        (     169.596 eV)
   280     280       --         6.343 au  fB            1.00    269 A               2
                        (     172.594 eV)
   281     281       --         6.359 au  fB            1.00    270 A               2
                        (     173.025 eV)
   282     282       --         6.403 au  fB            1.00    271 A               2
                        (     174.224 eV)
   283     283       --         6.446 au  fB            1.00    272 A               2
                        (     175.399 eV)
   284     284       --         6.512 au  fB            1.00    273 A               2
                        (     177.189 eV)
   285     285       --         6.597 au  fB            1.00    274 A               2
                        (     179.510 eV)
   286     286       --         6.630 au  fB            1.00    275 A               2
                        (     180.424 eV)
   287     287       --         6.785 au  fB            1.00    276 A               2
                        (     184.623 eV)
   288     288       --         6.824 au  fB            1.00    277 A               2
                        (     185.685 eV)
   289     289       --         6.903 au  fB            1.00    278 A               2
                        (     187.841 eV)
   290     290       --         6.944 au  fB            1.00    279 A               2
                        (     188.968 eV)
   291     291       --         7.043 au  fB            1.00    280 A               2
                        (     191.657 eV)
   292     292       --         7.154 au  fB            1.00    281 A               2
                        (     194.660 eV)
   293     293       --         7.270 au  fB            1.00    282 A               2
                        (     197.820 eV)
   294     294       --         7.365 au  fB            1.00    283 A               2
                        (     200.413 eV)
   295     295       --         7.461 au  fB            1.00    284 A               2
                        (     203.033 eV)
   296     296       --         7.733 au  fB            1.00    285 A               2
                        (     210.425 eV)
   297     297       --         7.764 au  fB            1.00    286 A               2
                        (     211.256 eV)
   298     298       --         8.259 au  fB            1.00    287 A               2
                        (     224.751 eV)
   299     299       --         8.795 au  fB            1.00    288 A               2
                        (     239.322 eV)
   300     300       --         8.952 au  fB            1.00    289 A               2
                        (     243.585 eV)
   301     301       --         9.222 au  fB            1.00    290 A               2
                        (     250.947 eV)
   302     302       --         9.365 au  fB            1.00    291 A               2
                        (     254.842 eV)
   303     303       --         9.908 au  fB            1.00    292 A               2
                        (     269.609 eV)
   304     304       --        10.466 au  fB            1.00    293 A               2
                        (     284.789 eV)
   305     305       --        10.531 au  fB            1.00    294 A               2
                        (     286.576 eV)
   306     306       --        14.050 au  fB            1.00    295 A               2
                        (     382.308 eV)
   307     307       --        15.592 au  fB            1.00    296 A               2
                        (     424.279 eV)
   308     308       --        15.714 au  fB            1.00    297 A               2
                        (     427.610 eV)
   309     309       --        15.904 au  fB            1.00    298 A               2
                        (     432.766 eV)
   310     310       --        15.967 au  fB            1.00    299 A               2
                        (     434.494 eV)
   311     311       --        19.010 au  fB            1.00    300 A               2
                        (     517.285 eV)
   312     312       --        19.068 au  fB            1.00    301 A               2
                        (     518.871 eV)
   313     313       --        19.868 au  fB            1.00    302 A               2
                        (     540.626 eV)
   314     314       --        56.151 au  fB            1.00    303 A               2
                        (    1527.940 eV)
   315     315       --        58.804 au  fB            1.00    304 A               2
                        (    1600.145 eV)
   316     316       --        71.459 au  fB            1.00    305 A               2
                        (    1944.491 eV)
   317     317       --        71.692 au  fB            1.00    306 A               2
                        (    1950.833 eV)
   318     318       --        72.116 au  fB            1.00    307 A               2
                        (    1962.375 eV)
   319     319       --       127.683 au  fB            1.00    308 A               2
                        (    3474.439 eV)
   320     320       --       128.017 au  fB            1.00    309 A               2
                        (    3483.507 eV)
   321     321       --       128.667 au  fB            1.00    310 A               2
                        (    3501.211 eV)
   322     322       --       128.832 au  fB            1.00    311 A               2
                        (    3505.701 eV)
   323     323       --       210.329 au  fB            1.00    312 A               2
                        (    5723.343 eV)



 ================================
 (Slater-type)  F U N C T I O N S  ***  (Basis and Fit)  ***
 ================================
  

 Atom Type    1  (H)
 ==============

 Valence Basis Sets:   5
 -----------------------
   1 S    0.690000
   1 S    0.920000
   1 S    1.580000
   2 P    1.250000
   3 D    2.500000

 Atom Type    2  (C)
 ==============

 Valence Basis Sets:  10
 -----------------------
   1 S    7.680000
   1 S    5.000000
   2 S    1.280000
   2 S    2.100000
   2 S    4.600000
   2 P    0.820000
   2 P    1.480000
   2 P    2.940000
   3 D    2.200000
   4 F    3.300000

 Atom Type    3  (Cl)
 ==============

 Valence Basis Sets:  14
 -----------------------
   1 S   20.300000
   1 S   15.250000
   2 S    6.250000
   2 S    4.450000
   2 P    8.850000
   2 P    5.050000
   3 S    3.450000
   3 S    2.300000
   3 S    1.600000
   3 P    3.350000
   3 P    2.050000
   3 P    1.200000
   3 D    2.000000
   4 F    2.000000

 Atom Type    4  (H)
 ==============

 Valence Basis Sets:   5
 -----------------------
   1 S    0.690000
   1 S    0.920000
   1 S    1.580000
   2 P    1.250000
   3 D    2.500000

 Atom Type    5  (N)
 ==============

 Valence Basis Sets:  10
 -----------------------
   1 S    8.740000
   1 S    5.900000
   2 S    5.150000
   2 S    2.500000
   2 S    1.500000
   2 P    3.680000
   2 P    1.880000
   2 P    1.000000
   3 D    2.200000
   4 F    3.300000

 Atom Type    6  (O)
 ==============

 Valence Basis Sets:  10
 -----------------------
   1 S    9.800000
   1 S    6.800000
   2 S    7.580000
   2 S    2.880000
   2 S    1.720000
   2 P    4.080000
   2 P    2.080000
   2 P    1.120000
   3 D    2.000000
   4 F    3.000000


 BAS: List of all Elementary Cartesian Basis Functions
 =====================================================

 The numbering in the list below (to the right of the function characteristics) is referred
 to in print-outs of MO eigenvectors and Mulliken populations in the BAS representation
 (as contrasted to the SFO representation).

 Notes:
 1. The functions are characterized by a polynomial prefactor (powers of x,y,z and r) and
    an exponential decay factor alpha.
 2. Since the basis sets are specific for an atom TYPE, the individual functions occur on
    all atoms of that type.
 3. The word 'Core' in the left margin signals that it is a Core Function (CF) : not a
    degree of freedom in the valence set, but only used to ensure orthogonalization of
    the other valence basis functions on the frozen Core Orbitals.


 (power of) X  Y  Z  R     Alpha  on Atom
            ==========     =====     ==========

 H                                    1
                                  ---------------------------------------------------------------------------
            0  0  0  0     0.690      1
            0  0  0  0     0.920      2
            0  0  0  0     1.580      3
            1  0  0  0     1.250      4
            0  1  0  0     1.250      5
            0  0  1  0     1.250      6
            2  0  0  0     2.500      7
            1  1  0  0     2.500      8
            1  0  1  0     2.500      9
            0  2  0  0     2.500     10
            0  1  1  0     2.500     11
            0  0  2  0     2.500     12

 C                                    2    3
                                  ---------------------------------------------------------------------------
            0  0  0  0     7.680     13   43
            0  0  0  0     5.000     14   44
            0  0  0  1     1.280     15   45
            0  0  0  1     2.100     16   46
            0  0  0  1     4.600     17   47
            1  0  0  0     0.820     18   48
            0  1  0  0     0.820     19   49
            0  0  1  0     0.820     20   50
            1  0  0  0     1.480     21   51
            0  1  0  0     1.480     22   52
            0  0  1  0     1.480     23   53
            1  0  0  0     2.940     24   54
            0  1  0  0     2.940     25   55
            0  0  1  0     2.940     26   56
            2  0  0  0     2.200     27   57
            1  1  0  0     2.200     28   58
            1  0  1  0     2.200     29   59
            0  2  0  0     2.200     30   60
            0  1  1  0     2.200     31   61
            0  0  2  0     2.200     32   62
            3  0  0  0     3.300     33   63
            2  1  0  0     3.300     34   64
            2  0  1  0     3.300     35   65
            1  2  0  0     3.300     36   66
            1  1  1  0     3.300     37   67
            1  0  2  0     3.300     38   68
            0  3  0  0     3.300     39   69
            0  2  1  0     3.300     40   70
            0  1  2  0     3.300     41   71
            0  0  3  0     3.300     42   72

 Cl                                   4
                                  ---------------------------------------------------------------------------
            0  0  0  0    20.300     73
            0  0  0  0    15.250     74
            0  0  0  1     6.250     75
            0  0  0  1     4.450     76
            1  0  0  0     8.850     77
            0  1  0  0     8.850     78
            0  0  1  0     8.850     79
            1  0  0  0     5.050     80
            0  1  0  0     5.050     81
            0  0  1  0     5.050     82
            0  0  0  2     3.450     83
            0  0  0  2     2.300     84
            0  0  0  2     1.600     85
            1  0  0  1     3.350     86
            0  1  0  1     3.350     87
            0  0  1  1     3.350     88
            1  0  0  1     2.050     89
            0  1  0  1     2.050     90
            0  0  1  1     2.050     91
            1  0  0  1     1.200     92
            0  1  0  1     1.200     93
            0  0  1  1     1.200     94
            2  0  0  0     2.000     95
            1  1  0  0     2.000     96
            1  0  1  0     2.000     97
            0  2  0  0     2.000     98
            0  1  1  0     2.000     99
            0  0  2  0     2.000    100
            3  0  0  0     2.000    101
            2  1  0  0     2.000    102
            2  0  1  0     2.000    103
            1  2  0  0     2.000    104
            1  1  1  0     2.000    105
            1  0  2  0     2.000    106
            0  3  0  0     2.000    107
            0  2  1  0     2.000    108
            0  1  2  0     2.000    109
            0  0  3  0     2.000    110

 H                                    5    6    7    8
                                  ---------------------------------------------------------------------------
            0  0  0  0     0.690    111  123  135  147
            0  0  0  0     0.920    112  124  136  148
            0  0  0  0     1.580    113  125  137  149
            1  0  0  0     1.250    114  126  138  150
            0  1  0  0     1.250    115  127  139  151
            0  0  1  0     1.250    116  128  140  152
            2  0  0  0     2.500    117  129  141  153
            1  1  0  0     2.500    118  130  142  154
            1  0  1  0     2.500    119  131  143  155
            0  2  0  0     2.500    120  132  144  156
            0  1  1  0     2.500    121  133  145  157
            0  0  2  0     2.500    122  134  146  158

 N                                    9   10   11
                                  ---------------------------------------------------------------------------
            0  0  0  0     8.740    159  189  219
            0  0  0  0     5.900    160  190  220
            0  0  0  1     5.150    161  191  221
            0  0  0  1     2.500    162  192  222
            0  0  0  1     1.500    163  193  223
            1  0  0  0     3.680    164  194  224
            0  1  0  0     3.680    165  195  225
            0  0  1  0     3.680    166  196  226
            1  0  0  0     1.880    167  197  227
            0  1  0  0     1.880    168  198  228
            0  0  1  0     1.880    169  199  229
            1  0  0  0     1.000    170  200  230
            0  1  0  0     1.000    171  201  231
            0  0  1  0     1.000    172  202  232
            2  0  0  0     2.200    173  203  233
            1  1  0  0     2.200    174  204  234
            1  0  1  0     2.200    175  205  235
            0  2  0  0     2.200    176  206  236
            0  1  1  0     2.200    177  207  237
            0  0  2  0     2.200    178  208  238
            3  0  0  0     3.300    179  209  239
            2  1  0  0     3.300    180  210  240
            2  0  1  0     3.300    181  211  241
            1  2  0  0     3.300    182  212  242
            1  1  1  0     3.300    183  213  243
            1  0  2  0     3.300    184  214  244
            0  3  0  0     3.300    185  215  245
            0  2  1  0     3.300    186  216  246
            0  1  2  0     3.300    187  217  247
            0  0  3  0     3.300    188  218  248

 O                                   12   13   14   15
                                  ---------------------------------------------------------------------------
            0  0  0  0     9.800    249  279  309  339
            0  0  0  0     6.800    250  280  310  340
            0  0  0  1     7.580    251  281  311  341
            0  0  0  1     2.880    252  282  312  342
            0  0  0  1     1.720    253  283  313  343
            1  0  0  0     4.080    254  284  314  344
            0  1  0  0     4.080    255  285  315  345
            0  0  1  0     4.080    256  286  316  346
            1  0  0  0     2.080    257  287  317  347
            0  1  0  0     2.080    258  288  318  348
            0  0  1  0     2.080    259  289  319  349
            1  0  0  0     1.120    260  290  320  350
            0  1  0  0     1.120    261  291  321  351
            0  0  1  0     1.120    262  292  322  352
            2  0  0  0     2.000    263  293  323  353
            1  1  0  0     2.000    264  294  324  354
            1  0  1  0     2.000    265  295  325  355
            0  2  0  0     2.000    266  296  326  356
            0  1  1  0     2.000    267  297  327  357
            0  0  2  0     2.000    268  298  328  358
            3  0  0  0     3.000    269  299  329  359
            2  1  0  0     3.000    270  300  330  360
            2  0  1  0     3.000    271  301  331  361
            1  2  0  0     3.000    272  302  332  362
            1  1  1  0     3.000    273  303  333  363
            1  0  2  0     3.000    274  304  334  364
            0  3  0  0     3.000    275  305  335  365
            0  2  1  0     3.000    276  306  336  366
            0  1  2  0     3.000    277  307  337  367
            0  0  3  0     3.000    278  308  338  368

 Total number of charge fitting functions (nprimf)      1112
 Total number of Cartesian basis functions (naos)        368
 Total number of Cartesian core functions  (ncos)          0

 ***************************************************************************************************



                                              ***********************
                                              *  T E C H N I C A L  *
                                              ***********************
  



 =============================================================
 P A R A L L E L I Z A T I O N  and  V E C T O R I Z A T I O N
 =============================================================
  
 Nr of parallel processes:                                1
 Maximum vector length in NumInt loops:                 128



 =====================
 S C F   U P D A T E S
 =====================
  
 Max. nr. of cycles:                               200
 Convergence criterion:                              0.0000010000
   secondary criterion:                              0.0010000000

 Mix parameter (when DIIS does not apply):           0.2000000000
 Mixed ADIIS+SDIIS will be used                  
    Max number of expansion vectors:                10
    Pure ADIIS when Max([F,P]) is above              0.1000000000
    Pure SDIIS when Max([F,P]) is below              0.0010000000
 Automatic ElectronSmearing (in case of problematic SCF convergence) disabled



 =================
 P R E C I S I O N  ***  (General: NumInt, NeglectFunctionTails, ...)  ***
 =================
  

 NumInt:           Target precision:                 4.0000000000
 -------           Initial precision:                4.0000000000
                   Min. precision (optimization):    4.0000000000

 Neglect Functions:          Basis functions:        0.1000000000E-05
 ------------------          Fit functions:          0.1000000000E-05



 ===========================
 L I N E A R   S C A L I N G
 ===========================
  

 Cut-off radii density fit:                        0.1000000000E-07
 Overlap cut-off criterion AO matrix elements:     0.1000000000E-05
 Cut-offs for Coulomb potential and fitted density:0.1000000000E-07
 Cut-off criterion for Coulomb multipole terms:    0.1000000000E-07
 Progressive Convergence parameter:                 0.000000000    
 ***************************************************************************************************



                                            ***************************
                                            *  C O M P U T A T I O N  *
                                            ***************************
  

 Number of elements of the density matrix on this node (used, total):     67896     67896



 ===========================================
 Numerical Integration : Fuzzy Cells (Becke)
 ===========================================
  
 Becke grid quality: NORMAL         
  
 Lebedev angular grid order:             min:  11 max:  23
 Nr. of radial points:                   min:  46 max:  67

 Total nr. of points:     100974
 Nr. of blocks:              789
 Block length:               128
 Nr. of dummy points:         18


 Test of Precision of the Numerical Integration Grid
 ===================================================

 Integral of the Total Core Density:                   0.00000000000000



 ========================
 Density Fitting (zlmFit)
 ========================
  
 ZlmFit Fit Quality: NORMAL         
  
 Max L-expansion:                        min:   6 max:   7
 Nr. of radial interpolation points:     min:  39 max:  60



 =====
 S C F  ***  ScaSCF  ***
 =====
  
 Initial density matrix is calculated as sum of fragments

 CYCLE    1
 SCF Error: norm([F,P])=      0.710248897535, max([F,P])=      0.299446546415
 orbitals (Q,E):
 ---------------
 A :35...54          ( 2.00    -0.2025)  ( 2.00    -0.1887)  ( 2.00    -0.1807)  ( 2.00    -0.1709)
                     ( 2.00    -0.1630)  ( 2.00    -0.1573)  ( 2.00    -0.1460)  ( 2.00    -0.1260)
                     ( 2.00    -0.0983)  ( 2.00    -0.0100)  ( 0.00    -0.0011)  ( 0.00     0.0341)
                     ( 0.00     0.0828)  ( 0.00     0.1207)  ( 0.00     0.1466)  ( 0.00     0.1645)
                     ( 0.00     0.2057)  ( 0.00     0.2162)  ( 0.00     0.2265)  ( 0.00     0.2448)

 CYCLE    2
   MIX coefficients:  0.8000  0.2000
 SCF Error: norm([F,P])=      1.259197070681, max([F,P])=      0.324035753621
 orbitals (Q,E):
 ---------------
 A :35...45          ( 2.00    -0.1728)  ( 2.00    -0.1595)  ( 2.00    -0.1530)  ( 2.00    -0.1493)
                     ( 2.00    -0.1372)  ( 2.00    -0.1194)  ( 2.00    -0.0843)  ( 2.00    -0.0740)
                     ( 2.00    -0.0673)  ( 2.00    -0.0535)  ( 0.00     0.0046)

 CYCLE    3
  SDIIS (wt  0.000):  0.2815  0.7185
 A-DIIS (wt  1.000):  0.1685  0.8315
  DIIS coefficients:  0.1685  0.8315
 SCF Error: norm([F,P])=      0.567134855422, max([F,P])=      0.078954494457
 orbitals (Q,E):
 ---------------
 A :35...45          ( 2.00    -0.2011)  ( 2.00    -0.1964)  ( 2.00    -0.1737)  ( 2.00    -0.1339)
                     ( 2.00    -0.1296)  ( 2.00    -0.1100)  ( 2.00    -0.1027)  ( 2.00    -0.0956)
                     ( 2.00    -0.0683)  ( 2.00    -0.0499)  ( 0.00    -0.0367)

 CYCLE    4
  SDIIS (wt  0.000):  0.1331  0.5260  0.3409
 A-DIIS (wt  1.000):  0.0864  0.5422  0.3714
  DIIS coefficients:  0.0864  0.5422  0.3714
 SCF Error: norm([F,P])=      0.599609358262, max([F,P])=      0.126294810129
 orbitals (Q,E):
 ---------------
 A :35...45          ( 2.00    -0.1863)  ( 2.00    -0.1791)  ( 2.00    -0.1573)  ( 2.00    -0.1547)
                     ( 2.00    -0.1463)  ( 2.00    -0.1389)  ( 2.00    -0.1259)  ( 2.00    -0.1115)
                     ( 2.00    -0.0996)  ( 2.00    -0.0147)  ( 0.00     0.0012)

 CYCLE    5
  SDIIS (wt  0.238):  0.0240  0.2803  0.2888  0.4070
 A-DIIS (wt  0.762):  0.0000  0.0695  0.2256  0.7048
  DIIS coefficients:  0.0057  0.1198  0.2407  0.6338
 SCF Error: norm([F,P])=      0.267715327610, max([F,P])=      0.076405915969
 orbitals (Q,E):
 ---------------
 A :35...45          ( 2.00    -0.1746)  ( 2.00    -0.1604)  ( 2.00    -0.1477)  ( 2.00    -0.1409)
                     ( 2.00    -0.1346)  ( 2.00    -0.1110)  ( 2.00    -0.1049)  ( 2.00    -0.0994)
                     ( 2.00    -0.0772)  ( 2.00    -0.0414)  ( 0.00     0.0133)

 CYCLE    6
  SDIIS (wt  0.375):  0.0111  0.1269  0.1689  0.4468  0.2464
 A-DIIS (wt  0.625):  0.0000  0.0000  0.0000  0.4961  0.5039
  DIIS coefficients:  0.0041  0.0476  0.0634  0.4776  0.4073
 SCF Error: norm([F,P])=      0.279329464410, max([F,P])=      0.062847734440
 orbitals (Q,E):
 ---------------
 A :35...45          ( 2.00    -0.1838)  ( 2.00    -0.1769)  ( 2.00    -0.1500)  ( 2.00    -0.1466)
                     ( 2.00    -0.1385)  ( 2.00    -0.1269)  ( 2.00    -0.1173)  ( 2.00    -0.1074)
                     ( 2.00    -0.0903)  ( 2.00    -0.0303)  ( 0.00    -0.0041)

 CYCLE    7
  SDIIS (wt  0.424):  0.0031  0.0235  0.0490  0.3774  0.3334  0.2136
 A-DIIS (wt  0.576):  0.0000  0.0000  0.0000  0.2772  0.2823  0.4405
  DIIS coefficients:  0.0013  0.0099  0.0207  0.3197  0.3039  0.3444
 SCF Error: norm([F,P])=      0.186450281644, max([F,P])=      0.058049146769
 orbitals (Q,E):
 ---------------
 A :35...45          ( 2.00    -0.1830)  ( 2.00    -0.1753)  ( 2.00    -0.1526)  ( 2.00    -0.1488)
                     ( 2.00    -0.1436)  ( 2.00    -0.1308)  ( 2.00    -0.1205)  ( 2.00    -0.1066)
                     ( 2.00    -0.0948)  ( 2.00    -0.0258)  ( 0.00    -0.0001)

 CYCLE    8
  SDIIS (wt  0.545): -0.0019 -0.0213 -0.0276  0.1739  0.1885  0.3610  0.3275
 A-DIIS (wt  0.455):  0.0000  0.0000  0.0000  0.0000  0.0000  0.3818  0.6182
  DIIS coefficients: -0.0010 -0.0116 -0.0151  0.0948  0.1028  0.3704  0.4597
 SCF Error: norm([F,P])=      0.133111699625, max([F,P])=      0.046023610311
 orbitals (Q,E):
 ---------------
 A :35...45          ( 2.00    -0.1835)  ( 2.00    -0.1755)  ( 2.00    -0.1532)  ( 2.00    -0.1504)
                     ( 2.00    -0.1420)  ( 2.00    -0.1288)  ( 2.00    -0.1185)  ( 2.00    -0.1088)
                     ( 2.00    -0.0928)  ( 2.00    -0.0246)  ( 0.00     0.0005)

 CYCLE    9
  SDIIS (wt  0.862): -0.0001 -0.0078 -0.0086  0.0191  0.0442  0.2178  0.3497  0.3857
 A-DIIS (wt  0.138):  0.0000  0.0000  0.0000  0.0000  0.0000  0.0000  0.1996  0.8004
  DIIS coefficients: -0.0001 -0.0067 -0.0074  0.0165  0.0381  0.1878  0.3290  0.4429
 SCF Error: norm([F,P])=      0.052412098560, max([F,P])=      0.014655706870
 orbitals (Q,E):
 ---------------
[...]
                                    2.20%    52 A               1.502  0.00     2 fB
                                    2.08%    34 A             -10.675  2.00     2 fB
                                    2.06%    50 A               0.776  0.00     2 fB
                                    1.79%    54 A               2.994  0.00     2 fB
                                    1.72%    25 A             -14.938  2.00     2 fB
                                    1.39%    65 A               6.719  0.00     2 fB
                                    1.25%    32 A             -12.165  2.00     2 fB
       0.06368       321 A         12.88%    43 A              -7.147  2.00     2 fB
                                   11.47%    47 A              -1.034  0.00     2 fB
                                   11.08%    42 A              -7.334  2.00     2 fB
                                   10.78%    48 A              -0.377  0.00     2 fB
                                    5.59%    34 A             -10.675  2.00     2 fB
                                    5.59%    41 A              -7.686  2.00     2 fB
                                    5.27%    44 A              -3.986  0.00     2 fB
                                    3.97%    39 A              -8.138  2.00     2 fB
                                    3.37%    51 A               1.286  0.00     2 fB
                                    3.10%    49 A               0.053  0.00     2 fB
                                    2.99%    35 A              -9.124  2.00     2 fB
                                    2.55%    55 A               3.664  0.00     2 fB
                                    2.32%    52 A               1.502  0.00     2 fB
                                    2.18%    50 A               0.776  0.00     2 fB
                                    1.91%    54 A               2.994  0.00     2 fB
                                    1.60%    33 A             -11.469  2.00     2 fB
                                    1.47%    65 A               6.719  0.00     2 fB
                                    1.47%    32 A             -12.165  2.00     2 fB
                                    1.14%    25 A             -14.938  2.00     2 fB
      -0.05894         4 A         30.21%    33 A             -11.469  2.00     2 fB
                                   15.94%    46 A              -2.241  0.00     2 fB
                                    5.61%    49 A               0.053  0.00     2 fB
                                    5.45%    59 A               4.402  0.00     2 fB
                                    5.45%    32 A             -12.165  2.00     2 fB
                                    3.88%    39 A              -8.138  2.00     2 fB
                                    3.88%    45 A              -3.936  0.00     2 fB
                                    3.71%    34 A             -10.675  2.00     2 fB
                                    3.11%    43 A              -7.147  2.00     2 fB
                                    2.88%    51 A               1.286  0.00     2 fB
                                    2.51%    37 A              -8.377  2.00     2 fB
                                    1.46%    54 A               2.994  0.00     2 fB
                                    1.45%    48 A              -0.377  0.00     2 fB
                                    1.36%    57 A               4.180  0.00     2 fB
                                    1.32%    31 A             -13.076  2.00     2 fB
                                    1.07%    65 A               6.719  0.00     2 fB
                                    1.02%    38 A              -8.221  2.00     2 fB
                                    1.00%    35 A              -9.124  2.00     2 fB
       0.05894       320 A         27.62%    33 A             -11.469  2.00     2 fB
                                   17.06%    46 A              -2.241  0.00     2 fB
                                    5.93%    49 A               0.053  0.00     2 fB
                                    5.79%    59 A               4.402  0.00     2 fB
                                    4.51%    32 A             -12.165  2.00     2 fB
                                    4.09%    45 A              -3.936  0.00     2 fB
                                    3.24%    39 A              -8.138  2.00     2 fB
                                    3.07%    51 A               1.286  0.00     2 fB
                                    2.54%    43 A              -7.147  2.00     2 fB
                                    2.30%    37 A              -8.377  2.00     2 fB
                                    2.23%     5 A              19.877  0.00     1 fA
                                    2.12%    34 A             -10.675  2.00     2 fB
                                    1.54%    54 A               2.994  0.00     2 fB
                                    1.52%    48 A              -0.377  0.00     2 fB
                                    1.45%    57 A               4.180  0.00     2 fB
                                    1.13%    65 A               6.719  0.00     2 fB
                                    1.06%     2 A               8.927  0.00     1 fA
                                    1.04%    64 A               6.184  0.00     2 fB
                                    1.01%    69 A               7.724  0.00     2 fB
      -0.05265         5 A         24.47%    40 A              -8.013  2.00     2 fB
                                   12.27%    48 A              -0.377  0.00     2 fB
                                   10.89%    54 A               2.994  0.00     2 fB
                                    4.13%    39 A              -8.138  2.00     2 fB
                                    4.07%    41 A              -7.686  2.00     2 fB
                                    4.00%    44 A              -3.986  0.00     2 fB
                                    2.97%    35 A              -9.124  2.00     2 fB
                                    2.95%    38 A              -8.221  2.00     2 fB
                                    2.51%    66 A               6.937  0.00     2 fB
                                    2.38%    62 A               5.845  0.00     2 fB
                                    2.15%    36 A              -8.670  2.00     2 fB
                                    2.10%    26 A             -14.387  2.00     2 fB
                                    1.98%    29 A             -13.404  2.00     2 fB
                                    1.79%    53 A               1.779  0.00     2 fB
                                    1.63%    58 A               4.298  0.00     2 fB
                                    1.43%    51 A               1.286  0.00     2 fB
                                    1.42%    25 A             -14.938  2.00     2 fB
                                    1.39%    56 A               3.680  0.00     2 fB
                                    1.33%    33 A             -11.469  2.00     2 fB
                                    1.27%    28 A             -13.828  2.00     2 fB
                                    1.22%    71 A               8.327  0.00     2 fB
                                    1.10%    43 A              -7.147  2.00     2 fB
                                    1.07%    52 A               1.502  0.00     2 fB
                                    1.04%    63 A               5.934  0.00     2 fB
       0.05265       319 A         20.59%    40 A              -8.013  2.00     2 fB
                                   12.84%    48 A              -0.377  0.00     2 fB
                                   11.48%    54 A               2.994  0.00     2 fB
                                    4.20%    44 A              -3.986  0.00     2 fB
                                    3.88%    39 A              -8.138  2.00     2 fB
                                    3.57%    41 A              -7.686  2.00     2 fB
                                    3.21%    38 A              -8.221  2.00     2 fB
                                    2.74%    35 A              -9.124  2.00     2 fB
                                    2.65%    66 A               6.937  0.00     2 fB
                                    2.62%    34 A             -10.675  2.00     2 fB
                                    2.51%    62 A               5.845  0.00     2 fB
                                    2.38%    29 A             -13.404  2.00     2 fB
                                    2.30%    36 A              -8.670  2.00     2 fB
                                    2.08%    33 A             -11.469  2.00     2 fB
                                    2.07%    25 A             -14.938  2.00     2 fB
                                    1.87%    53 A               1.779  0.00     2 fB
                                    1.72%    58 A               4.298  0.00     2 fB
                                    1.49%    51 A               1.286  0.00     2 fB
                                    1.47%    56 A               3.680  0.00     2 fB
                                    1.29%    71 A               8.327  0.00     2 fB
                                    1.11%    52 A               1.502  0.00     2 fB
                                   -1.10%    46 A              -2.241  0.00     2 fB
                                    1.10%    63 A               5.934  0.00     2 fB
                                    1.01%    55 A               3.664  0.00     2 fB
 Mulliken charges used for AMS results%charges...


    =====================
     CALCULATION RESULTS
    =====================

Energy (hartree)            -0.09701254


--------------
Atomic charges
--------------
  Index   Atom    Charge
      1      H   -0.5710
      2      C    0.2576
      3      C    0.3985
      4     Cl   -0.2528
      5      H   -0.0186
      6      H   -0.1521
      7      N    0.0477
      8      H   -0.0763
      9      H   -0.0103
     10      N    0.5509
     11      O   -0.4419
     12      O   -0.4766
     13      N    0.5674
     14      O   -0.4174
     15      O   -0.4051


Dipole moment vector    (Debye):     2.00655078    2.64092051   -4.48383356
              magnitude (Debye):     5.57722786


-----------------------
Molecular orbitals info
-----------------------
n orbitals:              323
n spin:                    1

Note: only printing virtual orbitals with
      energy smaller than HOMO + 100. eV

HOMO (eV):              -0.7084
LUMO (eV):              -0.0155
HOMO-LUMO gap (eV):      0.6929

   Index   Energy (eV)    Occupation
     211       99.2777         0.000       
     210       98.4200         0.000       
     209       97.5191         0.000       
     208       97.2319         0.000       
     207       96.8872         0.000       
     206       96.2318         0.000       
     205       96.0573         0.000       
     204       95.4970         0.000       
     203       95.1197         0.000       
     202       94.4810         0.000       
     201       93.8711         0.000       
     200       93.4176         0.000       
     199       92.9782         0.000       
     198       92.6654         0.000       
     197       90.9097         0.000       
     196       90.0575         0.000       
     195       89.1770         0.000       
     194       87.9176         0.000       
     193       87.4775         0.000       
     192       87.1408         0.000       
     191       86.1782         0.000       
     190       85.2252         0.000       
     189       84.3282         0.000       
     188       83.0287         0.000       
     187       81.9301         0.000       
     186       80.5100         0.000       
     185       79.2614         0.000       
     184       78.3856         0.000       
     183       77.9966         0.000       
     182       77.1469         0.000       
     181       75.9075         0.000       
     180       75.2320         0.000       
     179       75.0240         0.000       
     178       73.8720         0.000       
     177       72.1987         0.000       
     176       71.0727         0.000       
     175       70.6156         0.000       
     174       69.3264         0.000       
     173       68.4228         0.000       
     172       67.9816         0.000       
     171       67.2139         0.000       
     170       66.4814         0.000       
     169       65.7995         0.000       
     168       65.0250         0.000       
     167       64.8165         0.000       
     166       63.6357         0.000       
     165       63.0606         0.000       
     164       62.0778         0.000       
     163       61.7242         0.000       
     162       61.1423         0.000       
     161       60.2942         0.000       
     160       60.1247         0.000       
     159       58.9793         0.000       
     158       58.4701         0.000       
     157       58.3063         0.000       
     156       57.5978         0.000       
     155       57.1959         0.000       
     154       56.8985         0.000       
     153       55.0230         0.000       
     152       54.6215         0.000       
     151       54.2739         0.000       
     150       53.1112         0.000       
     149       52.8741         0.000       
     148       51.0373         0.000       
     147       50.2786         0.000       
     146       49.2698         0.000       
     145       48.1622         0.000       
     144       47.9824         0.000       
     143       47.9333         0.000       
     142       46.7003         0.000       
     141       46.2177         0.000       
     140       46.0915         0.000       
     139       45.0977         0.000       
     138       44.9862         0.000       
     137       44.1885         0.000       
     136       43.7219         0.000       
     135       43.1968         0.000       
     134       41.9567         0.000       
     133       41.8163         0.000       
     132       41.2235         0.000       
     131       40.7450         0.000       
     130       40.4534         0.000       
     129       39.9215         0.000       
     128       39.5315         0.000       
     127       39.3233         0.000       
     126       38.8950         0.000       
     125       38.4674         0.000       
     124       37.9417         0.000       
     123       37.4196         0.000       
     122       37.1249         0.000       
     121       36.8804         0.000       
     120       36.1315         0.000       
     119       35.8509         0.000       
     118       35.4084         0.000       
     117       34.3689         0.000       
     116       33.8360         0.000       
     115       33.6874         0.000       
     114       33.1642         0.000       
     113       32.0684         0.000       
     112       31.6158         0.000       
     111       31.1852         0.000       
     110       30.5248         0.000       
     109       30.0352         0.000       
     108       29.2461         0.000       
     107       28.9122         0.000       
     106       28.1133         0.000       
     105       27.1489         0.000       
     104       26.7486         0.000       
     103       26.2617         0.000       
     102       25.2675         0.000       
     101       24.8361         0.000       
     100       24.0568         0.000       
      99       23.7661         0.000       
      98       23.2687         0.000       
      97       22.8282         0.000       
      96       22.2256         0.000       
      95       21.6674         0.000       
      94       21.2231         0.000       
      93       20.3884         0.000       
      92       20.0224         0.000       
      91       19.5442         0.000       
      90       18.8610         0.000       
      89       18.6653         0.000       
      88       18.0553         0.000       
      87       17.5766         0.000       
      86       17.1280         0.000       
      85       16.8292         0.000       
      84       16.4086         0.000       
      83       16.0144         0.000       
      82       15.8060         0.000       
      81       15.7265         0.000       
      80       15.1780         0.000       
      79       14.6426         0.000       
      78       14.4818         0.000       
      77       14.0743         0.000       
      76       13.7016         0.000       
      75       13.4072         0.000       
      74       13.1020         0.000       
      73       12.9722         0.000       
      72       12.3507         0.000       
      71       12.0653         0.000       
      70       11.8918         0.000       
      69       11.7034         0.000       
      68       11.2329         0.000       
      67       10.8667         0.000       
      66       10.7271         0.000       
      65       10.2277         0.000       
      64        9.9785         0.000       
      63        9.7566         0.000       
      62        9.5328         0.000       
      61        9.0199         0.000       
      60        8.8431         0.000       
      59        8.4482         0.000       
      58        8.2480         0.000       
      57        7.9096         0.000       
      56        7.6949         0.000       
      55        6.9857         0.000       
      54        6.6251         0.000       
      53        5.9691         0.000       
      52        5.5309         0.000       
      51        5.4316         0.000       
      50        4.6846         0.000       
      49        4.0315         0.000       
      48        3.3256         0.000       
      47        2.5467         0.000       
      46        1.1530         0.000       
      45       -0.0155         0.000 < LUMO
      44       -0.7084         2.000 < HOMO
      43       -2.5332         2.000       
      42       -2.9332         2.000       
      41       -3.2314         2.000       
      40       -3.5131         2.000       
      39       -3.8719         2.000       
      38       -4.0582         2.000       
      37       -4.1395         2.000       
      36       -4.7689         2.000       
      35       -4.9773         2.000       
      34       -5.9851         2.000       
      33       -6.5993         2.000       
      32       -7.5018         2.000       
      31       -8.4120         2.000       
      30       -8.6925         2.000       
      29       -9.2016         2.000       
      28       -9.4869         2.000       
      27       -9.6392         2.000       
      26      -10.0048         2.000       
      25      -10.5459         2.000       
      24      -10.8814         2.000       
      23      -12.0982         2.000       
      22      -14.7184         2.000       
      21      -16.4262         2.000       
      20      -17.3132         2.000       
      19      -20.3397         2.000       
      18      -22.0920         2.000       
      17      -23.4199         2.000       
      16      -26.5327         2.000       
      15      -27.7291         2.000       
      14     -186.6495         2.000       
      13     -186.6560         2.000       
      12     -186.9129         2.000       
      11     -247.6888         2.000       
      10     -267.5785         2.000       
       9     -270.3163         2.000       
       8     -378.1753         2.000       
       7     -383.4000         2.000       
       6     -384.3157         2.000       
       5     -508.1413         2.000       
       4     -508.1707         2.000       
       3     -509.4635         2.000       
       2     -509.4874         2.000       
       1    -2746.9315         2.000       

AMS application finished. Exiting.
NORMAL TERMINATION
     Total cpu time:     106.10
  Total system time:       0.45
 Total elapsed time:     106.90
NORMAL TERMINATION
