
 *******************************************************************************
 *                                                                             *
 *  --------------------------------                                           *
 *   Amsterdam Modeling Suite (AMS)              2026.103                      *
 *  --------------------------------                                           *
 *                                               r260501 2026-05-01 873454b5   *
 *                                                                             *
 *                                                                             *
 *                              =================                              *
 *                              |               |                              *
 *                              |     A M S     |                              *
 *                              |               |                              *
 *                              =================                              *
 *                                                                             *
 *                                                                             *
 *   Online information and documentation:  https://www.scm.com/support/       *
 *   E-mail:  support@scm.com   info@scm.com                                   *
 *                                                                             *
 *   Scientific publications using AMS results must be properly referenced     *
 *   See the User Manuals (or the web site) for recommended citations          *
 *   The terms and conditions of the End User License Agreement apply to       *
 *   the use of AMS, https://www.scm.com/license-terms/                        *
 *                                                                             *
 **********************  x86_64_linux_intel / intelmpi  ************************
 
 Licensed to: Jong-June Jeon / University of Seoul 2026-06-02 13:44:15
 SCM User ID: u30731
  
 AMS 2026.103  RunTime: Jun04-2026 11:23:48  ShM Nodes: 1  Procs: 1

 AMS jobname: c5_fragB_opt
 AMS jobid  : 319524169

 Start   directory: /gpfs/home1/yeseo1ee/projects/eda-asm-prediction/ADF_800/adf_outputs/batch_005/qmrxn20_e2_E_B_A_B_B_A/
 Results directory: /gpfs/home1/yeseo1ee/projects/eda-asm-prediction/ADF_800/adf_outputs/batch_005/qmrxn20_e2_E_B_A_B_B_A/c5_fragB_opt.results/
 Scratch directory: /tmp/amstmp_c5_fragB_opt_kid0.319524169/

 RNG seed: -1527079441 637019758 874475256 -693045920 -1251228202 -1674546307 -202665478 -1925985804



                      ************************************************************************
                      *  ADF 2026.103  RunTime: Jun04-2026 11:23:48  ShM Nodes: 1  Procs: 1  *
                      ************************************************************************
  

       ***************************
       *  GEOMETRY OPTIMIZATION  *
       ***************************

Optimization Method                    Quasi Newton
Optimization Coordinates               Delocalized Coordinates
Optimize lattice                       F
 
 ------------------------------------------------------
 Convergence criteria (Hartree,Angstrom)
 ------------------------------------------------------
 Maximum gradient               0.000100000000
 Maximum rms gradient           0.000066666667
 Maximum step allowed           0.010000000000
 Maximum rms step allowed       0.006666666667
 Maximum energy change allowe   0.000140000000
 Maximum stress energy allowe   0.000500000000
 
Initial model Hessian                  Automatic Hessian
 
------------------------------------
Quasi-Newton Optimizer Parameters
------------------------------------
Hessian Update Method                  BFGS
Maximum number of steps                  200
First GDIIS cycle                          0
Maximum GDIIS vectors                      0
Trust radius (bohr)                        0.200000
Trust radius varies                        T
Constraints converged at all steps         T
Use projector                              T
 
 Rigid motions settings for: old optimizer
 Atomic rotations (x,y,z):     T T T
 Atomic translations (x,y,z):  T T T
 Tolerance:                  1.000000000000000E-006

--------
Geometry
--------
Formula: C2H4ClN3O4
Atoms
  Index Symbol   x (angstrom)   y (angstrom)   z (angstrom)
      1      C    -0.21142942    -0.11749600    -0.29770057
      2      C    -0.22753964    -0.06531345     1.19674049
      3     Cl     1.50838142    -0.09728237    -1.03248175
      4      H    -1.37159420    -0.37970013     1.43700104
      5      H     0.04721324     0.90461729     1.59181572
      6      N    -0.96998789    -1.13455127    -0.80512598
      7      H    -1.24096542    -0.97522015    -1.76550910
      8      H    -1.78034573    -1.28768512    -0.16300539
      9      N     0.59875453    -1.06154211     1.85528308
     10      O     0.65556800    -2.19950469     1.38554056
     11      O     1.13269198    -0.72150373     2.92155374
     12      N    -0.70992026     1.31048699    -0.80014654
     13      O    -1.39469754     1.30435829    -1.81812137
     14      O    -0.37591560     2.31251995    -0.18039637

Total System Charge              0.00000


----------------
ADF Engine Input
----------------
 
   Basis
     Type TZ2P
     Core None
   End
   XC
     GGA BLYP
     Dispersion GRIMME3 BJDAMP
   End
   Symmetry NOSYM
   NumericalQuality Normal
   Unrestricted No
   SCF
     Iterations 200
     Converge 1.0e-6
   End
   Save TAPE21
 

 Title: *** (NO TITLE) ***

 Using automatic Hessian for delocalized coordinates.
 *** GO1_GOStep1 ***

 Energy gradients wrt nuclear displacements
 ==========================================

     Atom      Cartesian (a.u./angstrom)
                 X         Y         Z
 ----------------------------------------
     1 C    -0.037842 -0.006689  0.019877
     2 C     0.107111 -0.004192 -0.010159
     3 Cl    0.004118  0.004227 -0.007584
     4 H    -0.087382 -0.036294 -0.006123
     5 H     0.006787 -0.005772 -0.001532
     6 N     0.039991  0.023377 -0.026759
     7 H     0.007577  0.002653  0.014348
     8 H    -0.021048  0.010379  0.039547
     9 N    -0.028974  0.049758 -0.043369
    10 O     0.001586  0.013910  0.015475
    11 O    -0.005575 -0.016258 -0.006899
    12 N     0.007995 -0.026429  0.013451
    13 O     0.015371  0.007396  0.020476
    14 O    -0.009715 -0.016067 -0.020749
 ----------------------------------------
 
----------------------------------------------------------------------
Geometry Convergence after Step   1       (Hartree/Angstrom,Angstrom)
----------------------------------------------------------------------
current energy                               -2.82730278 Hartree
energy change                      -2.82730278     0.00014000    F
constrained gradient max            0.10711797     0.00010000    F
constrained gradient rms            0.02939382     0.00006667    F
gradient max                        0.10711797
gradient rms                        0.02939382
cart. step max                      0.12346377     0.01000000    F
cart. step rms                      0.03750150     0.00666667    F
 

--------
Geometry
--------
Formula: C2H4ClN3O4
Atoms
  Index Symbol   x (angstrom)   y (angstrom)   z (angstrom)
      1      C    -0.23244396    -0.12519204    -0.30288213
      2      C    -0.22695837    -0.06105325     1.21428786
      3     Cl     1.49694893    -0.12771981    -1.00662180
      4      H    -1.31910992    -0.33034925     1.52139807
      5      H     0.06748002     0.91645035     1.58041099
      6      N    -0.99245489    -1.14372943    -0.86096141
      7      H    -1.23477251    -0.97012928    -1.83335283
      8      H    -1.81799721    -1.35635880    -0.28646916
      9      N     0.61384432    -1.07231440     1.89575334
     10      O     0.64247153    -2.22762301     1.44706896
     11      O     1.18680488    -0.68653110     2.93164715
     12      N    -0.72544640     1.32746710    -0.79921104
     13      O    -1.41261591     1.32919706    -1.82765078
     14      O    -0.38553703     2.32006935    -0.14796967

Total System Charge              0.00000

 *** GO1_GOStep2 ***

 Energy gradients wrt nuclear displacements
 ==========================================

     Atom      Cartesian (a.u./angstrom)
                 X         Y         Z
 ----------------------------------------
     1 C    -0.023210  0.011565  0.013943
     2 C     0.082470  0.007784 -0.001557
     3 Cl    0.005749  0.000957 -0.005342
     4 H    -0.059202 -0.023303  0.003658
     5 H     0.002330 -0.002118  0.000236
     6 N     0.011738  0.001250 -0.021085
     7 H     0.000557  0.000657  0.003785
     8 H    -0.009836  0.004126  0.014090
     9 N    -0.025273  0.032269 -0.026257
    10 O     0.002455 -0.005841  0.001888
    11 O     0.002006 -0.001570  0.007146
    12 N     0.010780 -0.027876  0.012941
    13 O    -0.001890 -0.000098 -0.003979
    14 O     0.001326  0.002198  0.000532
 ----------------------------------------

 dE(predicted):    -0.10672E-01, dE(actual):    -0.11274E-01, Trust radius:    0.400000, all in a.u.
 
----------------------------------------------------------------------
Geometry Convergence after Step   2       (Hartree/Angstrom,Angstrom)
----------------------------------------------------------------------
current energy                               -2.83857656 Hartree
energy change                      -0.01127378     0.00014000    F
constrained gradient max            0.08249402     0.00010000    F
constrained gradient rms            0.01972057     0.00006667    F
gradient max                        0.08249402
gradient rms                        0.01972057
cart. step max                      0.14995664     0.01000000    F
cart. step rms                      0.05168498     0.00666667    F
 

--------
Geometry
--------
Formula: C2H4ClN3O4
Atoms
  Index Symbol   x (angstrom)   y (angstrom)   z (angstrom)
      1      C    -0.23233966    -0.09535239    -0.30491460
      2      C    -0.23376023    -0.04176076     1.23039039
      3     Cl     1.50957796    -0.08809351    -0.95438375
      4      H    -1.24863354    -0.20678890     1.60102153
      5      H     0.13091649     0.92110770     1.57583500
      6      N    -0.95513662    -1.15563042    -0.85396732
      7      H    -1.19018323    -1.00837433    -1.83708233
      8      H    -1.76300557    -1.44525483    -0.31945383
      9      N     0.59444489    -1.12613369     1.90019869
     10      O     0.49251489    -2.28149942     1.46988319
     11      O     1.24576729    -0.76158166     2.89135092
     12      N    -0.77605033     1.36648785    -0.82726542
     13      O    -1.44298664     1.34255265    -1.86668722
     14      O    -0.47091223     2.37250520    -0.17947769

Total System Charge              0.00000

 *** GO1_GOStep3 ***

 Energy gradients wrt nuclear displacements
 ==========================================

     Atom      Cartesian (a.u./angstrom)
                 X         Y         Z
 ----------------------------------------
     1 C    -0.005237  0.028880 -0.006896
     2 C     0.006460 -0.009605  0.015946
     3 Cl    0.007446 -0.003811 -0.002284
     4 H     0.005116 -0.001227 -0.001296
     5 H    -0.003847  0.000093 -0.001252
     6 N    -0.008134 -0.019188  0.008713
     7 H    -0.002953  0.001751 -0.001710
     8 H     0.005417  0.003376 -0.007594
     9 N    -0.004606  0.007812 -0.010527
    10 O    -0.002070 -0.003423 -0.001912
    11 O    -0.000752  0.002703  0.006072
    12 N     0.003759 -0.018018  0.009252
    13 O    -0.001805  0.004151 -0.005080
    14 O     0.001206  0.006506 -0.001433
 ----------------------------------------

 dE(predicted):    -0.54811E-02, dE(actual):    -0.57139E-02, Trust radius:    0.800000, all in a.u.
 
----------------------------------------------------------------------
Geometry Convergence after Step   3       (Hartree/Angstrom,Angstrom)
----------------------------------------------------------------------
current energy                               -2.84429045 Hartree
energy change                      -0.00571389     0.00014000    F
constrained gradient max            0.02890383     0.00010000    F
constrained gradient rms            0.00818704     0.00006667    F
gradient max                        0.02890383
gradient rms                        0.00818704
cart. step max                      0.09498294     0.01000000    F
cart. step rms                      0.03493680     0.00666667    F
 

--------
Geometry
--------
Formula: C2H4ClN3O4
Atoms
  Index Symbol   x (angstrom)   y (angstrom)   z (angstrom)
      1      C    -0.21957438    -0.10405316    -0.30258098
      2      C    -0.23700942    -0.02613522     1.22947625
      3     Cl     1.52214282    -0.05744283    -0.93371093
      4      H    -1.25121445    -0.11619215     1.60796113
      5      H     0.19214446     0.91823613     1.55466148
      6      N    -0.93225395    -1.15431233    -0.86555666
      7      H    -1.14656913    -1.01197100    -1.85304300
      8      H    -1.74227625    -1.46297064    -0.33859657
      9      N     0.54609692    -1.14455223     1.92316612
     10      O     0.39753195    -2.29703745     1.50721993
     11      O     1.31551755    -0.78250977     2.82169417
     12      N    -0.77332565     1.36142552    -0.83428554
     13      O    -1.46735935     1.31700017    -1.85094374
     14      O    -0.54363766     2.35269847    -0.14001411

Total System Charge              0.00000

 *** GO1_GOStep4 ***

 Energy gradients wrt nuclear displacements
 ==========================================

     Atom      Cartesian (a.u./angstrom)
                 X         Y         Z
 ----------------------------------------
     1 C    -0.007439  0.018863 -0.003855
     2 C    -0.002303 -0.006533  0.007443
     3 Cl    0.002860  0.000462 -0.001447
     4 H     0.013021  0.000478 -0.001252
     5 H    -0.001911  0.001585 -0.001469
     6 N    -0.004312 -0.010695  0.003106
     7 H    -0.001905  0.001678 -0.001462
     8 H     0.000750  0.001895 -0.003913
     9 N    -0.022856 -0.003261  0.014390
    10 O     0.009165  0.005066 -0.004972
    11 O     0.003871  0.000405 -0.006310
    12 N     0.022355 -0.003713 -0.009188
    13 O    -0.005255 -0.002275  0.005544
    14 O    -0.006040 -0.003956  0.003384
 ----------------------------------------

 dE(predicted):    -0.99549E-03, dE(actual):    -0.22825E-03, Trust radius:    0.800000, all in a.u.
 
----------------------------------------------------------------------
Geometry Convergence after Step   4       (Hartree/Angstrom,Angstrom)
----------------------------------------------------------------------
current energy                               -2.84451870 Hartree
energy change                      -0.00022825     0.00014000    F
constrained gradient max            0.02264610     0.00010000    F
constrained gradient rms            0.00778303     0.00006667    F
gradient max                        0.02264610
gradient rms                        0.00778303
cart. step max                      0.20591167     0.01000000    F
cart. step rms                      0.05710057     0.00666667    F
 

--------
Geometry
--------
Formula: C2H4ClN3O4
Atoms
  Index Symbol   x (angstrom)   y (angstrom)   z (angstrom)
      1      C    -0.21416387    -0.10734597    -0.30344055
      2      C    -0.21818506    -0.00955854     1.22331200
      3     Cl     1.50767721     0.05268525    -0.94452297
      4      H    -1.22253931    -0.01383902     1.63068155
      5      H     0.29548788     0.90269604     1.52152593
      6      N    -0.89045208    -1.15463903    -0.88964856
      7      H    -1.09750503    -1.01458098    -1.87724372
      8      H    -1.67795471    -1.52990366    -0.36134608
      9      N     0.53264546    -1.17047953     1.92019110
     10      O     0.19162028    -2.32210698     1.64352600
     11      O     1.37773003    -0.84317351     2.75718328
     12      N    -0.84188433     1.35509903    -0.81110016
     13      O    -1.46821816     1.30345817    -1.86699642
     14      O    -0.61404483     2.34387222    -0.11667384

Total System Charge              0.00000

 *** GO1_GOStep5 ***

 Energy gradients wrt nuclear displacements
 ==========================================

     Atom      Cartesian (a.u./angstrom)
                 X         Y         Z
 ----------------------------------------
     1 C     0.000590  0.000510 -0.005727
     2 C    -0.021867  0.000361  0.006851
     3 Cl   -0.001938  0.004714  0.000157
     4 H     0.013832  0.004896 -0.002135
     5 H     0.001425  0.001863 -0.000645
     6 N     0.003270  0.005723 -0.006283
     7 H    -0.000755  0.000329 -0.000816
     8 H    -0.006490 -0.000540  0.001338
     9 N     0.006598 -0.008103 -0.001749
    10 O     0.005700  0.008518  0.006128
    11 O    -0.006376 -0.004080 -0.001884
    12 N    -0.003783  0.001177  0.000100
    13 O     0.005254 -0.005822  0.004169
    14 O     0.004540 -0.009544  0.000497
 ----------------------------------------

 dE(predicted):    -0.17463E-02, dE(actual):    -0.12572E-02, Trust radius:    0.800000, all in a.u.
 
----------------------------------------------------------------------
Geometry Convergence after Step   5       (Hartree/Angstrom,Angstrom)
----------------------------------------------------------------------
current energy                               -2.84577595 Hartree
energy change                      -0.00125724     0.00014000    F
constrained gradient max            0.02188366     0.00010000    F
constrained gradient rms            0.00589758     0.00006667    F
gradient max                        0.02188366
gradient rms                        0.00589758
cart. step max                      0.10316163     0.01000000    F
cart. step rms                      0.03141002     0.00666667    F
 

--------
Geometry
--------
Formula: C2H4ClN3O4
Atoms
  Index Symbol   x (angstrom)   y (angstrom)   z (angstrom)
      1      C    -0.20357300    -0.08263921    -0.29947604
      2      C    -0.20460800     0.00816548     1.22296957
      3     Cl     1.51960140     0.06627592    -0.93852502
      4      H    -1.22412850     0.01484250     1.62301865
      5      H     0.32953423     0.90220717     1.53715001
      6      N    -0.85204399    -1.15701441    -0.86235305
      7      H    -1.07739809    -1.04313200    -1.84837529
      8      H    -1.60597619    -1.56443148    -0.31103714
      9      N     0.50543482    -1.18661715     1.90098699
     10      O     0.08845865    -2.31956988     1.63069093
     11      O     1.39884718    -0.90329886     2.70712043
     12      N    -0.86358473     1.37168036    -0.81967525
     13      O    -1.48264342     1.30834491    -1.88190796
     14      O    -0.66770687     2.37737015    -0.13513927

Total System Charge              0.00000

 *** GO1_GOStep6 ***

 Energy gradients wrt nuclear displacements
 ==========================================

     Atom      Cartesian (a.u./angstrom)
                 X         Y         Z
 ----------------------------------------
     1 C    -0.003104  0.004888 -0.004382
     2 C    -0.006144 -0.000896 -0.000951
     3 Cl   -0.001793 -0.001411  0.001225
     4 H     0.000891  0.002730  0.001495
     5 H     0.001526  0.000673 -0.001018
     6 N     0.008422  0.002539 -0.002682
     7 H    -0.000569  0.000538  0.000465
     8 H    -0.005019 -0.000419  0.001956
     9 N     0.004009 -0.006114 -0.001898
    10 O     0.001199  0.000949 -0.000136
    11 O    -0.000604  0.001412  0.003060
    12 N    -0.002196 -0.006390  0.004815
    13 O     0.001775  0.000869 -0.000302
    14 O     0.001608  0.000635 -0.001647
 ----------------------------------------

 dE(predicted):    -0.85207E-03, dE(actual):    -0.11131E-02, Trust radius:    0.800000, all in a.u.
 
----------------------------------------------------------------------
Geometry Convergence after Step   6       (Hartree/Angstrom,Angstrom)
----------------------------------------------------------------------
current energy                               -2.84688901 Hartree
energy change                      -0.00111306     0.00014000    F
constrained gradient max            0.00847224     0.00010000    F
constrained gradient rms            0.00299712     0.00006667    F
gradient max                        0.00847224
gradient rms                        0.00299712
cart. step max                      0.21376999     0.01000000    F
cart. step rms                      0.05678250     0.00666667    F
 

--------
Geometry
--------
Formula: C2H4ClN3O4
Atoms
  Index Symbol   x (angstrom)   y (angstrom)   z (angstrom)
      1      C    -0.17504154    -0.06220036    -0.30322355
      2      C    -0.17501471     0.03511694     1.21476287
      3     Cl     1.53815451     0.13343713    -0.95104168
      4      H    -1.20037546     0.08934330     1.60753511
      5      H     0.40688964     0.89501006     1.53735256
      6      N    -0.79149602    -1.15940104    -0.85080822
      7      H    -1.03845272    -1.06915858    -1.83330210
      8      H    -1.49016448    -1.62397554    -0.27643364
      9      N     0.45518170    -1.20958444     1.88755671
     10      O    -0.12531134    -2.29058676     1.70799569
     11      O     1.43723766    -1.00934635     2.61035661
     12      N    -0.89213775     1.38198335    -0.82550908
     13      O    -1.52191803     1.29634005    -1.88074519
     14      O    -0.76733801     2.38520574    -0.11904853

Total System Charge              0.00000

 *** GO1_GOStep7 ***

 Energy gradients wrt nuclear displacements
 ==========================================

     Atom      Cartesian (a.u./angstrom)
                 X         Y         Z
 ----------------------------------------
     1 C    -0.004204  0.001377 -0.000297
     2 C    -0.000498  0.001841 -0.006788
     3 Cl   -0.003311 -0.003093  0.002298
     4 H    -0.004274  0.001697  0.002976
     5 H     0.001216  0.000164 -0.000829
     6 N     0.008150  0.000780  0.000443
     7 H    -0.000932  0.000454  0.000939
     8 H    -0.002403 -0.000126  0.000259
     9 N     0.007013 -0.009574 -0.005140
    10 O    -0.002099  0.000193 -0.000008
    11 O     0.000307  0.003903  0.005549
    12 N     0.007568 -0.002841  0.000805
    13 O    -0.003272  0.001346 -0.000728
    14 O    -0.003260  0.003879  0.000520
 ----------------------------------------

 dE(predicted):    -0.70534E-03, dE(actual):    -0.71931E-03, Trust radius:    0.800000, all in a.u.
 
----------------------------------------------------------------------
Geometry Convergence after Step   7       (Hartree/Angstrom,Angstrom)
----------------------------------------------------------------------
current energy                               -2.84760832 Hartree
energy change                      -0.00071931     0.00014000    F
constrained gradient max            0.00952717     0.00010000    F
constrained gradient rms            0.00353615     0.00006667    F
gradient max                        0.00952717
gradient rms                        0.00353615
cart. step max                      0.21689583     0.01000000    F
cart. step rms                      0.06491123     0.00666667    F
 

--------
Geometry
--------
Formula: C2H4ClN3O4
Atoms
  Index Symbol   x (angstrom)   y (angstrom)   z (angstrom)
      1      C    -0.14703069    -0.04096187    -0.29895145
      2      C    -0.14875285     0.06603151     1.21495616
      3     Cl     1.54839933     0.22689073    -0.96568768
      4      H    -1.17939480     0.16683665     1.59297525
      5      H     0.47695881     0.88844685     1.55006690
      6      N    -0.72665118    -1.16389339    -0.82840703
      7      H    -0.99581449    -1.10375711    -1.80662570
      8      H    -1.35173289    -1.69063326    -0.22900598
      9      N     0.38538619    -1.22578032     1.88353031
     10      O    -0.34220717    -2.22919942     1.78493785
     11      O     1.47524694    -1.15769952     2.45830127
     12      N    -0.93960689     1.38358982    -0.82239402
     13      O    -1.54111175     1.28125070    -1.89285235
     14      O    -0.85347510     2.39106215    -0.11539598

Total System Charge              0.00000

 *** GO1_GOStep8 ***

 Energy gradients wrt nuclear displacements
 ==========================================

     Atom      Cartesian (a.u./angstrom)
                 X         Y         Z
 ----------------------------------------
     1 C    -0.000455 -0.000491  0.003523
     2 C     0.009182  0.005390 -0.017514
     3 Cl   -0.002690 -0.003976  0.002497
     4 H    -0.008445 -0.000510  0.004232
     5 H     0.000392 -0.000256 -0.000654
     6 N     0.004189 -0.002380  0.005673
     7 H    -0.001280  0.000344  0.000885
     8 H     0.001794  0.001382 -0.003182
     9 N    -0.002024 -0.007931  0.008059
    10 O    -0.001704 -0.000703 -0.004773
    11 O     0.004537  0.002285  0.001146
    12 N     0.000547 -0.003077  0.004721
    13 O    -0.002484  0.003007 -0.004349
    14 O    -0.001558  0.006918 -0.000263
 ----------------------------------------

 dE(predicted):    -0.14499E-02, dE(actual):    -0.73912E-03, Trust radius:    0.800000, all in a.u.
 
----------------------------------------------------------------------
Geometry Convergence after Step   8       (Hartree/Angstrom,Angstrom)
----------------------------------------------------------------------
current energy                               -2.84834743 Hartree
energy change                      -0.00073912     0.00014000    F
constrained gradient max            0.01752008     0.00010000    F
constrained gradient rms            0.00469869     0.00006667    F
gradient max                        0.01752008
gradient rms                        0.00469869
cart. step max                      0.12218942     0.01000000    F
cart. step rms                      0.04004178     0.00666667    F
 

--------
Geometry
--------
Formula: C2H4ClN3O4
Atoms
  Index Symbol   x (angstrom)   y (angstrom)   z (angstrom)
      1      C    -0.12616373    -0.03118479    -0.29904049
      2      C    -0.13378619     0.07679890     1.21793476
      3     Cl     1.55599433     0.29008548    -0.98081954
      4      H    -1.16198792     0.20557269     1.58452539
      5      H     0.51491186     0.87734125     1.56077378
      6      N    -0.69336301    -1.15996390    -0.82871596
      7      H    -0.95840862    -1.11299415    -1.80855022
      8      H    -1.28930572    -1.71214960    -0.22182770
      9      N     0.35317904    -1.23385560     1.87805146
     10      O    -0.46439659    -2.17332978     1.88410745
     11      O     1.48736289    -1.24804898     2.35873956
     12      N    -0.95648124     1.37842901    -0.82515115
     13      O    -1.56077493     1.25909046    -1.89040115
     14      O    -0.90656670     2.37639250    -0.10417864

Total System Charge              0.00000

 *** GO1_GOStep9 ***

 Energy gradients wrt nuclear displacements
 ==========================================

     Atom      Cartesian (a.u./angstrom)
                 X         Y         Z
 ----------------------------------------
     1 C     0.002113 -0.004542  0.007344
     2 C     0.007058  0.006623 -0.012625
     3 Cl   -0.001925 -0.001686  0.001115
     4 H    -0.006457 -0.000813  0.003064
     5 H    -0.000411 -0.000822  0.000013
     6 N    -0.000631 -0.001573  0.002157
     7 H    -0.000871  0.000403  0.000018
     8 H     0.002650  0.001029 -0.002179
     9 N     0.002489 -0.005655  0.002401
    10 O    -0.002097 -0.000458  0.000110
    11 O     0.000879  0.000641  0.000777
    12 N     0.001853  0.003874 -0.001497
    13 O    -0.002528  0.000827 -0.001168
    14 O    -0.002122  0.002151  0.000468
 ----------------------------------------

 dE(predicted):    -0.34725E-03, dE(actual):    -0.23219E-03, Trust radius:    0.800000, all in a.u.
 
----------------------------------------------------------------------
Geometry Convergence after Step   9       (Hartree/Angstrom,Angstrom)
----------------------------------------------------------------------
current energy                               -2.84857962 Hartree
energy change                      -0.00023219     0.00014000    F
constrained gradient max            0.01261586     0.00010000    F
constrained gradient rms            0.00345879     0.00006667    F
gradient max                        0.01261586
gradient rms                        0.00345879
cart. step max                      0.05353909     0.01000000    F
cart. step rms                      0.01768182     0.00666667    F
 

--------
Geometry
--------
Formula: C2H4ClN3O4
Atoms
  Index Symbol   x (angstrom)   y (angstrom)   z (angstrom)
      1      C    -0.13073656    -0.03560120    -0.29645208
      2      C    -0.14719279     0.06924516     1.22659118
      3     Cl     1.55554156     0.28284746    -0.97980066
      4      H    -1.17493173     0.17892772     1.58344964
      5      H     0.48185197     0.88444590     1.57224034
      6      N    -0.71394844    -1.15901179    -0.82739334
      7      H    -0.95688650    -1.11597048    -1.81343175
      8      H    -1.34284481    -1.68335114    -0.22662962
      9      N     0.36710491    -1.22552424     1.87879459
     10      O    -0.41667988    -2.19251995     1.86716131
     11      O     1.49839071    -1.21233763     2.36502838
     12      N    -0.94224445     1.37337358    -0.82550656
     13      O    -1.54608219     1.25607621    -1.88998850
     14      O    -0.87112833     2.37158389    -0.10861535

Total System Charge              0.00000

 *** GO1_GOStep10 ***

 Energy gradients wrt nuclear displacements
 ==========================================

     Atom      Cartesian (a.u./angstrom)
                 X         Y         Z
 ----------------------------------------
     1 C     0.005045 -0.003684  0.006437
     2 C     0.000536  0.004471 -0.004222
     3 Cl    0.000949  0.001591 -0.001043
     4 H     0.000004 -0.001071  0.000700
     5 H    -0.000529 -0.000734  0.000522
     6 N    -0.004122 -0.001385 -0.000245
     7 H    -0.000325 -0.000006 -0.000897
     8 H    -0.000001  0.000558 -0.000250
     9 N     0.001936 -0.000870  0.002743
    10 O     0.000648 -0.001087 -0.000270
    11 O    -0.002224 -0.000596 -0.000927
    12 N    -0.001853  0.005719 -0.003044
    13 O    -0.000179 -0.001021  0.000336
    14 O     0.000113 -0.001884  0.000160
 ----------------------------------------

 dE(predicted):    -0.18732E-03, dE(actual):    -0.24254E-03, Trust radius:    0.800000, all in a.u.
 
----------------------------------------------------------------------
Geometry Convergence after Step  10       (Hartree/Angstrom,Angstrom)
----------------------------------------------------------------------
current energy                               -2.84882217 Hartree
energy change                      -0.00024254     0.00014000    F
constrained gradient max            0.00644551     0.00010000    F
constrained gradient rms            0.00226771     0.00006667    F
gradient max                        0.00644551
gradient rms                        0.00226771
cart. step max                      0.03410191     0.01000000    F
cart. step rms                      0.01042262     0.00666667    F
 

--------
Geometry
--------
Formula: C2H4ClN3O4
Atoms
  Index Symbol   x (angstrom)   y (angstrom)   z (angstrom)
      1      C    -0.13264205    -0.03315042    -0.29719975
      2      C    -0.14893476     0.07183373     1.22746942
      3     Cl     1.55357684     0.29140971    -0.97707656
      4      H    -1.17432403     0.19504851     1.58315260
      5      H     0.49013673     0.88157121     1.56900076
      6      N    -0.70244062    -1.16219784    -0.82636876
      7      H    -0.94007282    -1.12653605    -1.81336079
      8      H    -1.32647297    -1.69323224    -0.22449218
      9      N     0.35800822    -1.22512856     1.87381069
     10      O    -0.44360798    -2.17699322     1.88795856
     11      O     1.50202082    -1.23009172     2.33092647
     12      N    -0.94881991     1.37217543    -0.82016778
     13      O    -1.54799047     1.25845878    -1.88702200
     14      O    -0.87822353     2.36901617    -0.10118312

Total System Charge              0.00000

 *** GO1_GOStep11 ***

 Energy gradients wrt nuclear displacements
 ==========================================

     Atom      Cartesian (a.u./angstrom)
                 X         Y         Z
 ----------------------------------------
     1 C     0.002762 -0.004927  0.003600
     2 C    -0.001837  0.002769 -0.002395
     3 Cl    0.000499  0.000626 -0.000398
     4 H     0.000864 -0.000248 -0.000133
     5 H     0.000085 -0.000467  0.000338
     6 N    -0.001242  0.000347 -0.001335
     7 H     0.000107  0.000246 -0.000140
     8 H    -0.000442 -0.000298  0.001017
     9 N     0.001375 -0.001724  0.001036
    10 O     0.001049  0.000647 -0.000016
    11 O    -0.001161 -0.000312 -0.000457
    12 N    -0.003571  0.005624 -0.002025
    13 O     0.000960 -0.000518  0.001188
    14 O     0.000555 -0.001764 -0.000280
 ----------------------------------------

 dE(predicted):    -0.64623E-04, dE(actual):    -0.57679E-04, Trust radius:    0.800000, all in a.u.
 
----------------------------------------------------------------------
Geometry Convergence after Step  11       (Hartree/Angstrom,Angstrom)
----------------------------------------------------------------------
current energy                               -2.84887985 Hartree
energy change                      -0.00005768     0.00014000    T
constrained gradient max            0.00559497     0.00010000    F
constrained gradient rms            0.00177257     0.00006667    F
gradient max                        0.00559497
gradient rms                        0.00177257
cart. step max                      0.02604184     0.01000000    F
cart. step rms                      0.00910489     0.00666667    F
 

--------
Geometry
--------
Formula: C2H4ClN3O4
Atoms
  Index Symbol   x (angstrom)   y (angstrom)   z (angstrom)
      1      C    -0.13231781    -0.02729415    -0.29806510
      2      C    -0.14661818     0.07344115     1.22955987
      3     Cl     1.55242152     0.30262848    -0.97974037
      4      H    -1.17177910     0.20651947     1.58303367
      5      H     0.49870387     0.87939337     1.56939701
      6      N    -0.69037793    -1.16291918    -0.82376783
      7      H    -0.92416541    -1.13531530    -1.81155878
      8      H    -1.31237023    -1.69620940    -0.22155025
      9      N     0.34830897    -1.22552986     1.86887669
     10      O    -0.46964982    -2.16359722     1.90172202
     11      O     1.50111751    -1.24899269     2.30519574
     12      N    -0.95294019     1.36875870    -0.81676793
     13      O    -1.55594264     1.25368402    -1.88180480
     14      O    -0.88417709     2.36761611    -0.09908238

Total System Charge              0.00000

 *** GO1_GOStep12 ***

 Energy gradients wrt nuclear displacements
 ==========================================

     Atom      Cartesian (a.u./angstrom)
                 X         Y         Z
 ----------------------------------------
     1 C     0.000733 -0.004090  0.001427
     2 C    -0.000772 -0.000385  0.000107
     3 Cl    0.000213 -0.000124 -0.000371
     4 H     0.000389 -0.000006 -0.000408
     5 H     0.000265  0.000028 -0.000023
     6 N     0.000260  0.001286 -0.001090
     7 H     0.000309  0.000192  0.000286
     8 H    -0.000184 -0.000333  0.001113
     9 N    -0.000138 -0.000537 -0.000833
    10 O     0.000519  0.000794  0.000235
    11 O     0.000082 -0.000053  0.000182
    12 N    -0.002397  0.003517 -0.001159
    13 O     0.000520  0.000059  0.000727
    14 O     0.000201 -0.000347 -0.000193
 ----------------------------------------

 dE(predicted):    -0.39669E-04, dE(actual):    -0.22909E-04, Trust radius:    0.800000, all in a.u.
 
----------------------------------------------------------------------
Geometry Convergence after Step  12       (Hartree/Angstrom,Angstrom)
----------------------------------------------------------------------
current energy                               -2.84890275 Hartree
energy change                      -0.00002291     0.00014000    T
constrained gradient max            0.00409093     0.00010000    F
constrained gradient rms            0.00106307     0.00006667    F
gradient max                        0.00409093
gradient rms                        0.00106307
cart. step max                      0.01125847     0.01000000    F
cart. step rms                      0.00338342     0.00666667    T
 

--------
Geometry
--------
Formula: C2H4ClN3O4
Atoms
  Index Symbol   x (angstrom)   y (angstrom)   z (angstrom)
      1      C    -0.13327845    -0.02393046    -0.29833344
      2      C    -0.14652631     0.07445574     1.23143349
      3     Cl     1.55240791     0.30681799    -0.97752113
      4      H    -1.17138142     0.21131280     1.58517311
      5      H     0.50064254     0.87963923     1.56989695
      6      N    -0.68624846    -1.16344891    -0.82227354
      7      H    -0.91712968    -1.13929899    -1.81085569
      8      H    -1.31282504    -1.69364495    -0.22258089
      9      N     0.34498408    -1.22438015     1.86587344
     10      O    -0.47665399    -2.15966408     1.90271839
     11      O     1.50124206    -1.25352005     2.29393728
     12      N    -0.95237009     1.36444708    -0.81499211
     13      O    -1.55936824     1.24843409    -1.87820571
     14      O    -0.88328143     2.36496417    -0.09882259

Total System Charge              0.00000

 *** GO1_GOStep13 ***

 Energy gradients wrt nuclear displacements
 ==========================================

     Atom      Cartesian (a.u./angstrom)
                 X         Y         Z
 ----------------------------------------
     1 C    -0.000019 -0.002793 -0.000146
     2 C     0.000205 -0.002078  0.001512
     3 Cl    0.000059 -0.000263 -0.000129
     4 H     0.000120  0.000203 -0.000309
     5 H     0.000252  0.000272 -0.000241
     6 N     0.000389  0.001285 -0.000229
     7 H     0.000255 -0.000046  0.000299
     8 H    -0.000054 -0.000146  0.000512
     9 N    -0.000905  0.000924 -0.001382
    10 O     0.000086  0.000272  0.000051
    11 O     0.000646  0.000055  0.000209
    12 N    -0.001010  0.001813 -0.000371
    13 O     0.000035  0.000231  0.000330
    14 O    -0.000058  0.000271 -0.000107
 ----------------------------------------

 dE(predicted):    -0.17494E-04, dE(actual):    -0.16922E-04, Trust radius:    0.800000, all in a.u.
 
----------------------------------------------------------------------
Geometry Convergence after Step  13       (Hartree/Angstrom,Angstrom)
----------------------------------------------------------------------
current energy                               -2.84891968 Hartree
energy change                      -0.00001692     0.00014000    T
constrained gradient max            0.00279542     0.00010000    F
constrained gradient rms            0.00078511     0.00006667    F
gradient max                        0.00279542
gradient rms                        0.00078511
cart. step max                      0.00512551     0.01000000    T
cart. step rms                      0.00188507     0.00666667    T
 

--------
Geometry
--------
Formula: C2H4ClN3O4
Atoms
  Index Symbol   x (angstrom)   y (angstrom)   z (angstrom)
      1      C    -0.13314188    -0.02138339    -0.29862968
      2      C    -0.14556115     0.07571427     1.23212966
      3     Cl     1.55256606     0.31063783    -0.97683935
      4      H    -1.16993793     0.21409272     1.58731464
      5      H     0.50279525     0.87971321     1.57080735
      6      N    -0.68401337    -1.16324808    -0.82212286
      7      H    -0.91726318    -1.13799049    -1.81032516
      8      H    -1.31252154    -1.69207815    -0.22382863
      9      N     0.34341511    -1.22427011     1.86523509
     10      O    -0.48037579    -2.15798803     1.90255967
     11      O     1.50049244    -1.25668951     2.29080941
     12      N    -0.95189514     1.36053256    -0.81483146
     13      O    -1.56014783     1.24330858    -1.87763262
     14      O    -0.88419759     2.36183210    -0.09919852

Total System Charge              0.00000

 *** GO1_GOStep14 ***

 Energy gradients wrt nuclear displacements
 ==========================================

     Atom      Cartesian (a.u./angstrom)
                 X         Y         Z
 ----------------------------------------
     1 C     0.000282 -0.001461 -0.000672
     2 C     0.000803 -0.002201  0.001576
     3 Cl   -0.000186 -0.000246 -0.000014
     4 H    -0.000044  0.000189  0.000001
     5 H     0.000092  0.000264 -0.000289
     6 N    -0.000065  0.000995  0.000441
     7 H     0.000070 -0.000227  0.000130
     8 H     0.000117  0.000027 -0.000169
     9 N    -0.000900  0.001506 -0.001021
    10 O    -0.000187 -0.000205 -0.000068
    11 O     0.000627  0.000010  0.000071
    12 N    -0.000233  0.000768  0.000020
    13 O    -0.000302  0.000143 -0.000065
    14 O    -0.000073  0.000436  0.000058
 ----------------------------------------

 dE(predicted):    -0.85145E-05, dE(actual):    -0.65117E-05, Trust radius:    0.800000, all in a.u.
 
----------------------------------------------------------------------
Geometry Convergence after Step  14       (Hartree/Angstrom,Angstrom)
----------------------------------------------------------------------
current energy                               -2.84892619 Hartree
energy change                      -0.00000651     0.00014000    T
constrained gradient max            0.00218161     0.00010000    F
constrained gradient rms            0.00064830     0.00006667    F
gradient max                        0.00218161
gradient rms                        0.00064830
cart. step max                      0.00487714     0.01000000    T
cart. step rms                      0.00224108     0.00666667    T
 

--------
Geometry
--------
Formula: C2H4ClN3O4
Atoms
  Index Symbol   x (angstrom)   y (angstrom)   z (angstrom)
      1      C    -0.13298257    -0.01886877    -0.29900457
      2      C    -0.14448789     0.07764780     1.23209148
      3     Cl     1.55265904     0.31526137    -0.97618664
      4      H    -1.16814658     0.21708282     1.58931473
      5      H     0.50568056     0.87949230     1.57189128
      6      N    -0.68198470    -1.16332145    -0.82228274
      7      H    -0.92187722    -1.13397768    -1.80905953
      8      H    -1.31078009    -1.69141781    -0.22384167
      9      N     0.34242620    -1.22484882     1.86482600
     10      O    -0.48332176    -2.15691750     1.90183017
     11      O     1.49936516    -1.25993409     2.28983951
     12      N    -0.95133029     1.35619045    -0.81543123
     13      O    -1.55782570     1.23843144    -1.87944265
     14      O    -0.88718068     2.35736344    -0.09909657

Total System Charge              0.00000

 *** GO1_GOStep15 ***

 Energy gradients wrt nuclear displacements
 ==========================================

     Atom      Cartesian (a.u./angstrom)
                 X         Y         Z
 ----------------------------------------
     1 C     0.000809 -0.000122 -0.000831
     2 C     0.000909 -0.001336  0.000901
     3 Cl   -0.000561 -0.000150  0.000144
     4 H    -0.000141  0.000140  0.000299
     5 H    -0.000029  0.000138 -0.000213
     6 N    -0.000510  0.000497  0.000782
     7 H    -0.000137 -0.000305 -0.000036
     8 H     0.000143  0.000083 -0.000615
     9 N    -0.000430  0.001248 -0.000402
    10 O    -0.000268 -0.000440 -0.000127
    11 O     0.000322 -0.000081 -0.000081
    12 N     0.000266  0.000003  0.000215
    13 O    -0.000405  0.000029 -0.000189
    14 O     0.000032  0.000296  0.000153
 ----------------------------------------

 dE(predicted):    -0.76068E-05, dE(actual):    -0.41630E-05, Trust radius:    0.800000, all in a.u.
 
----------------------------------------------------------------------
Geometry Convergence after Step  15       (Hartree/Angstrom,Angstrom)
----------------------------------------------------------------------
current energy                               -2.84893035 Hartree
energy change                      -0.00000416     0.00014000    T
constrained gradient max            0.00131618     0.00010000    F
constrained gradient rms            0.00047656     0.00006667    F
gradient max                        0.00131618
gradient rms                        0.00047656
cart. step max                      0.00520469     0.01000000    T
cart. step rms                      0.00220596     0.00666667    T
 

--------
Geometry
--------
Formula: C2H4ClN3O4
Atoms
  Index Symbol   x (angstrom)   y (angstrom)   z (angstrom)
      1      C    -0.13275633    -0.01733948    -0.29911353
      2      C    -0.14372744     0.07915069     1.23171224
      3     Cl     1.55297111     0.31862471    -0.97612850
      4      H    -1.16687770     0.21923741     1.58982594
      5      H     0.50829004     0.87879458     1.57285471
      6      N    -0.68037772    -1.16346625    -0.82227983
      7      H    -0.92703964    -1.12995967    -1.80741049
      8      H    -1.30748814    -1.69172542    -0.22189454
      9      N     0.34176173    -1.22583354     1.86452124
     10      O    -0.48610416    -2.15579712     1.90283492
     11      O     1.49884932    -1.26334940     2.28817321
     12      N    -0.95149213     1.35369578    -0.81635961
     13      O    -1.55341009     1.23623277    -1.88300949
     14      O    -0.89238537     2.35391844    -0.09827870

Total System Charge              0.00000

 *** GO1_GOStep16 ***

 Energy gradients wrt nuclear displacements
 ==========================================

     Atom      Cartesian (a.u./angstrom)
                 X         Y         Z
 ----------------------------------------
     1 C     0.000978  0.000418 -0.000600
     2 C     0.000536 -0.000360  0.000189
     3 Cl   -0.000695 -0.000117  0.000173
     4 H    -0.000080  0.000063  0.000316
     5 H    -0.000014 -0.000014 -0.000097
     6 N    -0.000564  0.000220  0.000521
     7 H    -0.000193 -0.000208 -0.000061
     8 H     0.000057  0.000052 -0.000481
     9 N    -0.000001  0.000530  0.000043
    10 O    -0.000157 -0.000325 -0.000082
    11 O     0.000039 -0.000155 -0.000155
    12 N     0.000208 -0.000204  0.000181
    13 O    -0.000274 -0.000009 -0.000087
    14 O     0.000161  0.000109  0.000140
 ----------------------------------------
 
----------------------------------------------------------------------
Geometry Convergence after Step  16       (Hartree/Angstrom,Angstrom)
----------------------------------------------------------------------
current energy                               -2.84893112 Hartree
energy change                      -0.00000077     0.00014000    T
constrained gradient max            0.00100223     0.00010000    F
constrained gradient rms            0.00031239     0.00006667    F
gradient max                        0.00100223
gradient rms                        0.00031239
cart. step max                      0.00629213     0.01000000    T
cart. step rms                      0.00195741     0.00666667    T
 

--------
Geometry
--------
Formula: C2H4ClN3O4
Atoms
  Index Symbol   x (angstrom)   y (angstrom)   z (angstrom)
      1      C    -0.13308247    -0.01681775    -0.29895393
      2      C    -0.14369509     0.07990953     1.23141610
      3     Cl     1.55343603     0.31958972    -0.97586111
      4      H    -1.16662906     0.21982471     1.58967986
      5      H     0.50935419     0.87830111     1.57345752
      6      N    -0.67994698    -1.16383599    -0.82204326
      7      H    -0.93206595    -1.12670463    -1.80573941
      8      H    -1.30556324    -1.69182582    -0.21936529
      9      N     0.34199326    -1.22651095     1.86406959
     10      O    -0.48664605    -2.15546518     1.90379267
     11      O     1.49936443    -1.26464296     2.28649896
     12      N    -0.95133974     1.35258131    -0.81729614
     13      O    -1.54711796     1.23648337    -1.88745061
     14      O    -0.89784787     2.35129703    -0.09675738

Total System Charge              0.00000

 *** GO1_GOStep17 ***

 Energy gradients wrt nuclear displacements
 ==========================================

     Atom      Cartesian (a.u./angstrom)
                 X         Y         Z
 ----------------------------------------
     1 C     0.000714  0.000407 -0.000281
     2 C     0.000053  0.000320 -0.000238
     3 Cl   -0.000589 -0.000109  0.000120
     4 H     0.000031  0.000010  0.000168
     5 H     0.000088 -0.000118  0.000002
     6 N    -0.000358  0.000025  0.000069
     7 H    -0.000170 -0.000037  0.000005
     8 H    -0.000070  0.000022 -0.000094
     9 N     0.000210 -0.000193  0.000180
    10 O     0.000004 -0.000066 -0.000025
    11 O    -0.000071 -0.000144 -0.000150
    12 N     0.000029 -0.000135  0.000084
    13 O    -0.000093  0.000032  0.000098
    14 O     0.000223 -0.000014  0.000061
 ----------------------------------------

 dE(predicted):    -0.21521E-05, dE(actual):    -0.13169E-05, Trust radius:    0.800000, all in a.u.
 
----------------------------------------------------------------------
Geometry Convergence after Step  17       (Hartree/Angstrom,Angstrom)
----------------------------------------------------------------------
current energy                               -2.84893243 Hartree
energy change                      -0.00000132     0.00014000    T
constrained gradient max            0.00073842     0.00010000    F
constrained gradient rms            0.00019507     0.00006667    F
gradient max                        0.00073842
gradient rms                        0.00019507
cart. step max                      0.00487592     0.01000000    T
cart. step rms                      0.00144269     0.00666667    T
 

--------
Geometry
--------
Formula: C2H4ClN3O4
Atoms
  Index Symbol   x (angstrom)   y (angstrom)   z (angstrom)
      1      C    -0.13336393    -0.01676604    -0.29867429
      2      C    -0.14364860     0.08012944     1.23147454
      3     Cl     1.55393401     0.31957890    -0.97578521
      4      H    -1.16650446     0.22014461     1.58954822
      5      H     0.50990400     0.87810562     1.57359441
      6      N    -0.67984153    -1.16406934    -0.82165314
      7      H    -0.93418001    -1.12542381    -1.80474524
      8      H    -1.30478274    -1.69177101    -0.21774838
      9      N     0.34210009    -1.22669995     1.86368010
     10      O    -0.48734766    -2.15475728     1.90530758
     11      O     1.50020384    -1.26569180     2.28399238
     12      N    -0.95137051     1.35230522    -0.81776829
     13      O    -1.54224204     1.23743585    -1.89072677
     14      O    -0.90264697     2.34966308    -0.09504834

Total System Charge              0.00000

 *** GO1_GOStep18 ***

 Energy gradients wrt nuclear displacements
 ==========================================

     Atom      Cartesian (a.u./angstrom)
                 X         Y         Z
 ----------------------------------------
     1 C     0.000337  0.000179 -0.000077
     2 C    -0.000153  0.000423 -0.000249
     3 Cl   -0.000345 -0.000112  0.000023
     4 H     0.000101 -0.000010  0.000028
     5 H     0.000154 -0.000130  0.000018
     6 N    -0.000162 -0.000011 -0.000170
     7 H    -0.000138  0.000074  0.000050
     8 H    -0.000121  0.000034  0.000156
     9 N     0.000189 -0.000404  0.000125
    10 O     0.000064  0.000071  0.000017
    11 O    -0.000047 -0.000132 -0.000129
    12 N    -0.000054 -0.000020  0.000039
    13 O    -0.000033  0.000062  0.000158
    14 O     0.000209 -0.000024  0.000011
 ----------------------------------------
 
----------------------------------------------------------------------
Geometry Convergence after Step  18       (Hartree/Angstrom,Angstrom)
----------------------------------------------------------------------
current energy                               -2.84893242 Hartree
energy change                       0.00000001     0.00014000    T
constrained gradient max            0.00043900     0.00010000    F
constrained gradient rms            0.00014430     0.00006667    F
gradient max                        0.00043900
gradient rms                        0.00014430
cart. step max                      0.00537938     0.01000000    T
cart. step rms                      0.00139947     0.00666667    T
 

--------
Geometry
--------
Formula: C2H4ClN3O4
Atoms
  Index Symbol   x (angstrom)   y (angstrom)   z (angstrom)
      1      C    -0.13401219    -0.01712835    -0.29836885
      2      C    -0.14375048     0.07995378     1.23166319
      3     Cl     1.55422306     0.31826978    -0.97569445
      4      H    -1.16654462     0.21980268     1.58984268
      5      H     0.50969848     0.87827842     1.57326876
      6      N    -0.68063053    -1.16433324    -0.82131904
      7      H    -0.93575249    -1.12486272    -1.80420143
      8      H    -1.30585786    -1.69140806    -0.21705098
      9      N     0.34278006    -1.22645809     1.86346125
     10      O    -0.48643613    -2.15465466     1.90606093
     11      O     1.50135588    -1.26507492     2.28265226
     12      N    -0.95104541     1.35236940    -0.81804404
     13      O    -1.53686266     1.23926278    -1.89393618
     14      O    -0.90695165     2.34816670    -0.09288655

Total System Charge              0.00000

 *** GO1_GOStep19 ***

 Energy gradients wrt nuclear displacements
 ==========================================

     Atom      Cartesian (a.u./angstrom)
                 X         Y         Z
 ----------------------------------------
     1 C    -0.000063 -0.000063  0.000044
     2 C    -0.000170  0.000271 -0.000117
     3 Cl   -0.000075 -0.000105 -0.000075
     4 H     0.000123 -0.000001 -0.000045
     5 H     0.000186 -0.000095 -0.000002
     6 N     0.000021 -0.000041 -0.000232
     7 H    -0.000142  0.000129  0.000080
     8 H    -0.000156  0.000061  0.000248
     9 N     0.000085 -0.000372  0.000006
    10 O     0.000067  0.000126  0.000028
    11 O     0.000030 -0.000093 -0.000106
    12 N    -0.000050  0.000082  0.000045
    13 O    -0.000020  0.000099  0.000153
    14 O     0.000164  0.000001 -0.000029
 ----------------------------------------
 
----------------------------------------------------------------------
Geometry Convergence after Step  19       (Hartree/Angstrom,Angstrom)
----------------------------------------------------------------------
current energy                               -2.84893298 Hartree
energy change                      -0.00000056     0.00014000    T
constrained gradient max            0.00032901     0.00010000    F
constrained gradient rms            0.00010611     0.00006667    F
gradient max                        0.00032901
gradient rms                        0.00010611
cart. step max                      0.00368460     0.01000000    T
cart. step rms                      0.00096381     0.00666667    T
 

--------
Geometry
--------
Formula: C2H4ClN3O4
Atoms
  Index Symbol   x (angstrom)   y (angstrom)   z (angstrom)
      1      C    -0.13425162    -0.01723553    -0.29818898
      2      C    -0.14337430     0.07996244     1.23185767
      3     Cl     1.55428027     0.31777715    -0.97602261
      4      H    -1.16598235     0.22033846     1.59038581
      5      H     0.51028687     0.87838210     1.57287458
      6      N    -0.68101124    -1.16437783    -0.82098163
      7      H    -0.93574790    -1.12519470    -1.80399816
      8      H    -1.30651331    -1.69129903    -0.21691994
      9      N     0.34288622    -1.22624785     1.86333033
     10      O    -0.48679035    -2.15408097     1.90660621
     11      O     1.50181433    -1.26548524     2.28159409
     12      N    -0.95114487     1.35236519    -0.81808834
     13      O    -1.53360202     1.24028566    -1.89591213
     14      O    -0.91063625     2.34699364    -0.09108935

Total System Charge              0.00000

 *** GO1_GOStep20 ***

 Energy gradients wrt nuclear displacements
 ==========================================

     Atom      Cartesian (a.u./angstrom)
                 X         Y         Z
 ----------------------------------------
     1 C    -0.000208 -0.000160  0.000091
     2 C    -0.000053  0.000054  0.000009
     3 Cl    0.000087 -0.000093 -0.000134
     4 H     0.000111  0.000018 -0.000034
     5 H     0.000162 -0.000050 -0.000038
     6 N     0.000054 -0.000025 -0.000114
     7 H    -0.000176  0.000113  0.000061
     8 H    -0.000149  0.000079  0.000173
     9 N     0.000020 -0.000174 -0.000074
    10 O     0.000008  0.000083  0.000026
    11 O     0.000072 -0.000095 -0.000101
    12 N    -0.000021  0.000146  0.000042
    13 O    -0.000043  0.000080  0.000107
    14 O     0.000134  0.000023 -0.000013
 ----------------------------------------

 dE(predicted):    -0.28624E-06, dE(actual):     0.11906E-05, Trust radius:    0.020000, all in a.u.
 
----------------------------------------------------------------------
Geometry Convergence after Step  20       (Hartree/Angstrom,Angstrom)
----------------------------------------------------------------------
current energy                               -2.84893179 Hartree
energy change                       0.00000119     0.00014000    T
constrained gradient max            0.00018569     0.00010000    F
constrained gradient rms            0.00007387     0.00006667    F
gradient max                        0.00018569
gradient rms                        0.00007387
cart. step max                      0.00319329     0.01000000    T
cart. step rms                      0.00090301     0.00666667    T
 

--------
Geometry
--------
Formula: C2H4ClN3O4
Atoms
  Index Symbol   x (angstrom)   y (angstrom)   z (angstrom)
      1      C    -0.13457441    -0.01735548    -0.29815430
      2      C    -0.14290434     0.07995824     1.23193272
      3     Cl     1.55395735     0.31711390    -0.97660751
      4      H    -1.16522946     0.22096160     1.59114867
      5      H     0.51102411     0.87843908     1.57229674
      6      N    -0.68168084    -1.16437622    -0.82078786
      7      H    -0.93561941    -1.12575751    -1.80405095
      8      H    -1.30760603    -1.69119194    -0.21717310
      9      N     0.34312376    -1.22600629     1.86339509
     10      O    -0.48653551    -2.15394125     1.90635633
     11      O     1.50194142    -1.26526898     2.28202521
     12      N    -0.95121118     1.35234041    -0.81804870
     13      O    -1.53064244     1.24144934    -1.89762671
     14      O    -0.91382954     2.34581860    -0.08925807

Total System Charge              0.00000

 *** GO1_GOStep21 ***

 Energy gradients wrt nuclear displacements
 ==========================================

     Atom      Cartesian (a.u./angstrom)
                 X         Y         Z
 ----------------------------------------
     1 C    -0.000230 -0.000151  0.000085
     2 C     0.000092 -0.000123  0.000057
     3 Cl    0.000133 -0.000085 -0.000153
     4 H     0.000083  0.000047  0.000029
     5 H     0.000126 -0.000015 -0.000063
     6 N     0.000057 -0.000000  0.000040
     7 H    -0.000219  0.000068  0.000034
     8 H    -0.000151  0.000080  0.000045
     9 N    -0.000011  0.000019 -0.000096
    10 O    -0.000042  0.000013  0.000013
    11 O     0.000081 -0.000095 -0.000106
    12 N     0.000026  0.000136  0.000051
    13 O    -0.000061  0.000072  0.000061
    14 O     0.000116  0.000034  0.000002
 ----------------------------------------

 dE(predicted):    -0.21192E-06, dE(actual):     0.13237E-05, Trust radius:    0.020000, all in a.u.
 
----------------------------------------------------------------------
Geometry Convergence after Step  21       (Hartree/Angstrom,Angstrom)
----------------------------------------------------------------------
current energy                               -2.84893047 Hartree
energy change                       0.00000132     0.00014000    T
constrained gradient max            0.00020852     0.00010000    F
constrained gradient rms            0.00006591     0.00006667    T
gradient max                        0.00020852
gradient rms                        0.00006591
cart. step max                      0.00218071     0.01000000    T
cart. step rms                      0.00060481     0.00666667    T
 

--------
Geometry
--------
Formula: C2H4ClN3O4
Atoms
  Index Symbol   x (angstrom)   y (angstrom)   z (angstrom)
      1      C    -0.13459450    -0.01726916    -0.29825322
      2      C    -0.14236124     0.08013456     1.23186349
      3     Cl     1.55357346     0.31716140    -0.97732120
      4      H    -1.16442794     0.22188237     1.59155703
      5      H     0.51209480     0.87828957     1.57194811
      6      N    -0.68191903    -1.16429902    -0.82063950
      7      H    -0.93519915    -1.12640329    -1.80409570
      8      H    -1.30770412    -1.69132882    -0.21713526
      9      N     0.34299054    -1.22598758     1.86344232
     10      O    -0.48699341    -2.15369063     1.90598483
     11      O     1.50158275    -1.26568160     2.28264266
     12      N    -0.95150012     1.35229554    -0.81798232
     13      O    -1.52931831     1.24201121    -1.89848092
     14      O    -0.91601026     2.34506896    -0.08808275

Total System Charge              0.00000

 *** GO1_GOStep22 ***

 Energy gradients wrt nuclear displacements
 ==========================================

     Atom      Cartesian (a.u./angstrom)
                 X         Y         Z
 ----------------------------------------
     1 C    -0.000128 -0.000088  0.000068
     2 C     0.000144 -0.000151  0.000028
     3 Cl    0.000086 -0.000084 -0.000141
     4 H     0.000077  0.000060  0.000068
     5 H     0.000105 -0.000010 -0.000065
     6 N     0.000002  0.000008  0.000123
     7 H    -0.000233  0.000034  0.000013
     8 H    -0.000144  0.000072 -0.000024
     9 N     0.000003  0.000084 -0.000077
    10 O    -0.000066 -0.000022  0.000005
    11 O     0.000065 -0.000108 -0.000109
    12 N     0.000035  0.000113  0.000042
    13 O    -0.000066  0.000053  0.000032
    14 O     0.000120  0.000039  0.000037
 ----------------------------------------

 dE(predicted):    -0.10738E-06, dE(actual):     0.17373E-05, Trust radius:    0.020000, all in a.u.
 
----------------------------------------------------------------------
Geometry Convergence after Step  22       (Hartree/Angstrom,Angstrom)
----------------------------------------------------------------------
current energy                               -2.84892873 Hartree
energy change                       0.00000174     0.00014000    T
constrained gradient max            0.00014045     0.00010000    F
constrained gradient rms            0.00005714     0.00006667    T
gradient max                        0.00014045
gradient rms                        0.00005714
cart. step max                      0.00126965     0.01000000    T
cart. step rms                      0.00045721     0.00666667    T
 

--------
Geometry
--------
Formula: C2H4ClN3O4
Atoms
  Index Symbol   x (angstrom)   y (angstrom)   z (angstrom)
      1      C    -0.13464708    -0.01720080    -0.29842980
      2      C    -0.14197893     0.08026149     1.23171017
      3     Cl     1.55309804     0.31710055    -0.97800140
      4      H    -1.16385061     0.22252794     1.59174314
      5      H     0.51295375     0.87805856     1.57168138
      6      N    -0.68224904    -1.16419136    -0.82061733
      7      H    -0.93494670    -1.12692467    -1.80421975
      8      H    -1.30768192    -1.69148481    -0.21700454
      9      N     0.34294000    -1.22602704     1.86355874
     10      O    -0.48701318    -2.15378059     1.90536079
     11      O     1.50112847    -1.26567260     2.28384875
     12      N    -0.95171002     1.35232446    -0.81792113
     13      O    -1.52854939     1.24256716    -1.89897079
     14      O    -0.91727991     2.34462519    -0.08729067

Total System Charge              0.00000

 *** GO1_GOStep23 ***

 Energy gradients wrt nuclear displacements
 ==========================================

     Atom      Cartesian (a.u./angstrom)
                 X         Y         Z
 ----------------------------------------
     1 C    -0.000014 -0.000013  0.000032
     2 C     0.000133 -0.000097 -0.000025
     3 Cl   -0.000017 -0.000098 -0.000111
     4 H     0.000081  0.000064  0.000083
     5 H     0.000108 -0.000027 -0.000050
     6 N    -0.000050  0.000010  0.000109
     7 H    -0.000217  0.000019  0.000012
     8 H    -0.000142  0.000061 -0.000024
     9 N     0.000022  0.000054 -0.000040
    10 O    -0.000050 -0.000024  0.000004
    11 O     0.000043 -0.000112 -0.000107
    12 N     0.000025  0.000068  0.000028
    13 O    -0.000049  0.000061  0.000048
    14 O     0.000126  0.000034  0.000042
 ----------------------------------------
 
---------------------------------------------------------
Geometry Convergence after Step  23       ** CONVERGED **
---------------------------------------------------------
current energy                               -2.84892777 Hartree
energy change                       0.00000096     0.00014000    T
constrained gradient max            0.00009214     0.00010000    T
constrained gradient rms            0.00003523     0.00006667    T
gradient max                        0.00009214
gradient rms                        0.00003523
cart. step max                      0.00059178     0.01000000    T
cart. step rms                      0.00021871     0.00666667    T
 
Geometry optimization converged

Optimized geometry:

--------
Geometry
--------
Formula: C2H4ClN3O4
Atoms
  Index Symbol   x (angstrom)   y (angstrom)   z (angstrom)
      1      C    -0.13464708    -0.01720080    -0.29842980
      2      C    -0.14197893     0.08026149     1.23171017
      3     Cl     1.55309804     0.31710055    -0.97800140
      4      H    -1.16385061     0.22252794     1.59174314
      5      H     0.51295375     0.87805856     1.57168138
      6      N    -0.68224904    -1.16419136    -0.82061733
      7      H    -0.93494670    -1.12692467    -1.80421975
      8      H    -1.30768192    -1.69148481    -0.21700454
      9      N     0.34294000    -1.22602704     1.86355874
     10      O    -0.48701318    -2.15378059     1.90536079
     11      O     1.50112847    -1.26567260     2.28384875
     12      N    -0.95171002     1.35232446    -0.81792113
     13      O    -1.52854939     1.24256716    -1.89897079
     14      O    -0.91727991     2.34462519    -0.08729067

Total System Charge              0.00000

Performing a single point calculation on the final geometry ...

 *** adf ***



 ===========================
 A T T A C H E D   F I L E S
 ===========================
  
 Restart/tmp/amstmp_c5_fragB_opt_kid0.319524169/GO1_GOStep23.rkf*** GO1_GOStep23 ***



 ===============================
 M O D E L   P A R A M E T E R S
 ===============================
  
 DENSITY FUNCTIONAL POTENTIAL (scf)
    LDA:                               Exchange only                           == Not Default ==
    Gradient Corrections:              Becke88 LYP                             == Not Default ==

 SPIN  (restricted / unrestr.)
    Molecule:                          Restricted                               
    Fragments:                         Restricted                               

 OTHER ASPECTS
    Relativistic Corrections:          scalar (ZORA,MAPA)                       

    Nuclear Charge Density Model:      Point Charge Nuclei                      
    Core Treatment:                    Frozen Orbital(s)                        

    Hyperfine or Zeeman Interaction:   ---                                      

 Settings for Grimme D3 dispersion correction

      damping                        BJ
      s6                          1.000
      s8                          2.700
      a1                          0.430
      a2                          4.236

 Other (technical) parameters

      alpha                      14.000
      version                         4
 



 ===============
 G E O M E T R Y  ***  3D  Molecule  ***
 ===============
  

 ATOMS
 =====                            X Y Z                    CHARGE
                                (Angstrom)             Nucl     +Core       At.Mass
                       --------------------------    ----------------       -------
    1  C              -0.1346   -0.0172   -0.2984      6.00      6.00       12.0000
    2  C              -0.1420    0.0803    1.2317      6.00      6.00       12.0000
    3  Cl              1.5531    0.3171   -0.9780     17.00     17.00       34.9689
    4  H              -1.1639    0.2225    1.5917      1.00      1.00        1.0078
    5  H               0.5130    0.8781    1.5717      1.00      1.00        1.0078
    6  N              -0.6822   -1.1642   -0.8206      7.00      7.00       14.0031
    7  H              -0.9349   -1.1269   -1.8042      1.00      1.00        1.0078
    8  H              -1.3077   -1.6915   -0.2170      1.00      1.00        1.0078
    9  N               0.3429   -1.2260    1.8636      7.00      7.00       14.0031
   10  O              -0.4870   -2.1538    1.9054      8.00      8.00       15.9949
   11  O               1.5011   -1.2657    2.2838      8.00      8.00       15.9949
   12  N              -0.9517    1.3523   -0.8179      7.00      7.00       14.0031
   13  O              -1.5285    1.2426   -1.8990      8.00      8.00       15.9949
   14  O              -0.9173    2.3446   -0.0873      8.00      8.00       15.9949


 FRAGMENTS
 =========                                     Atoms in this Fragment     Cart. coord.s (Angstrom)
                                               -------------------------------------------------------
    1  C                                                 1  C           -0.1346   -0.0172   -0.2984
    2  C                                                 2  C           -0.1420    0.0803    1.2317
    3  Cl                                                3  Cl           1.5531    0.3171   -0.9780
    4  H                                                 4  H           -1.1639    0.2225    1.5917
    5  H                                                 5  H            0.5130    0.8781    1.5717
    6  H                                                 7  H           -0.9349   -1.1269   -1.8042
    7  H                                                 8  H           -1.3077   -1.6915   -0.2170
    8  N                                                 6  N           -0.6822   -1.1642   -0.8206
    9  N                                                 9  N            0.3429   -1.2260    1.8636
   10  N                                                12  N           -0.9517    1.3523   -0.8179
   11  O                                                10  O           -0.4870   -2.1538    1.9054
   12  O                                                11  O            1.5011   -1.2657    2.2838
   13  O                                                13  O           -1.5285    1.2426   -1.8990
   14  O                                                14  O           -0.9173    2.3446   -0.0873


 Interatomic Distance Matrix (Angstrom)
 --------------------------------------

   1)     0.000
   2)     1.533   0.000
   3)     1.850   2.795   0.000
   4)     2.166   1.093   3.741   0.000
   5)     2.172   1.087   2.810   1.800   0.000
   6)     1.374   2.460   2.686   2.824   3.365   0.000
   7)     2.035   3.362   2.993   3.661   4.185   1.016   0.000
   8)     2.046   2.568   3.577   2.637   3.622   1.017   1.725   0.000
   9)     2.523   1.530   3.453   2.108   2.131   2.874   3.885   2.696   0.000
  10)     3.090   2.359   4.311   2.491   3.210   2.907   3.875   2.322   1.246   0.000
  11)     3.302   2.370   3.626   3.130   2.466   3.797   4.761   3.785   1.233   2.210
          0.000
  12)     1.677   2.545   2.715   2.670   2.843   2.531   2.668   3.123   3.939   4.464
          4.742   0.000
  13)     2.468   3.616   3.347   3.655   4.043   2.770   2.445   3.389   4.874   5.205
          5.742   1.230   0.000
  14)     2.497   2.733   3.318   2.717   2.636   3.592   3.873   4.057   4.260   4.939
          4.950   1.233   2.207   0.000

 Min. Distance =    1.0162
 Max. Distance =    5.7416



 =====================================
 S Y M M E T R Y ,   E L E C T R O N S
 =====================================
  
 Symmetry: NOSYM

 Irreducible Representations, including subspecies
 -------------------------------------------------
 A


 Configuration of Valence Electrons
 ==================================
 ( determined in the SCF procedure )

 Total:   86

 Net Charge: 0 (Nuclei minus Electrons)

 Aufbau principle for MO occupations will be applied through SCF cycle no.     100
 Thereafter, the program will assign electrons to MOs that are spatially
 similar to the occupied MOs in a "reference" cycle ("KeepOrbitals").
 The reference cycle is always the PREVIOUS cycle: it will evolve with
 the SCF procedure.
 ***************************************************************************************************



                                      ****************************************
                                      *  B U I L D : (Fragments, Functions)  *
                                      ****************************************
  



 =======
 S F O s  ***  (Symmetrized Fragment Orbitals)  ***
 =======
  
 SFOs are linear combinations of (valence) Fragment Orbitals (FOs), such that the SFOs transform as the
 irreducible representations of the (molecular) symmetry group. Each SFO is therefore characterized by
 an irrep of the molecule and by a few (or only one) generating FOs.
 The SFOs constitute a symmetry-adapted basis for the Fock matrix. The MO eigenvector coefficients in
 this basis provide a direct interpretation of the MOs in terms of Frontier Orbital Theory.

 The SFOs are combined with auxiliary Core Functions (CFs) to ensure orthogonalization on the (frozen)
 Core Orbitals (COs). The Core-orthogonalized SFOs (CSFOs) constitute the true Fock basis.

 The FOs, and hence also the (C)SFOs are combinations of the elementary basis functions (BAS). The basis
 functions that participate in the description of the SFOs depend on the irrep. The indices of the
 involved functions are printed below for each irrep.
 (The complete list of primitive basis functions is printed in another section)

 Total nr. of (C)SFOs (summation over all irreps) :   312

 NOTE: a (C)SFO that is defined as a combination of more than one FO is usually NOT normalized.



                                       === A ===
 Nr. of SFOs :  312
 Cartesian basis functions that participate in this irrep (total number =   356) :
      1     2     3     4     5     6     9    12     7    10
     13     8    11    14    15    16    17    18    19    20
     21    22    23    24    25    26    27    28    29    30
     31    32    33    34    35    36    39    42    37    40
     43    38    41    44    45    46    47    48    49    50
     51    52    53    54    55    56    57    58    59    60
     61    62    63    64    71    72    73    65    68    74
     77    80    66    69    75    78    81    67    70    76
     79    82    83    84    85    86    87    88    89    90
     91    92    93    94    95    96    97    98    99   100
    101   102   103   104   105   106   107   108   109   110
    111   112   113   114   115   116   117   118   119   120
    121   122   123   124   125   126   127   128   129   130
    131   132   133   134   135   136   137   138   139   140
    141   142   143   144   145   146   147   148   149   150
    151   152   155   158   153   156   159   154   157   160
    161   162   163   164   165   166   167   168   169   170
    171   172   173   174   175   176   177   178   179   180
    181   182   185   188   183   186   189   184   187   190
    191   192   193   194   195   196   197   198   199   200
    201   202   203   204   205   206   207   208   209   210
    211   212   215   218   213   216   219   214   217   220
    221   222   223   224   225   226   227   228   229   230
    231   232   233   234   235   236   237   238   239   240
    241   242   245   248   243   246   249   244   247   250
    251   252   253   254   255   256   257   258   259   260
    261   262   263   264   265   266   267   268   269   270
    271   272   275   278   273   276   279   274   277   280
    281   282   283   284   285   286   287   288   289   290
    291   292   293   294   295   296   297   298   299   300
    301   302   305   308   303   306   309   304   307   310
    311   312   313   314   315   316   317   318   319   320
    321   322   323   324   325   326   327   328   329   330
    331   332   335   338   333   336   339   334   337   340
    341   342   343   344   345   346   347   348   349   350
    351   352   353   354   355   356

    SFO  (index         Fragment          Generating    Expansion in Fragment Orbitals
  indx  incl.CFs)   Occup   Orb.Energy   FragmentType  Coeff.   Orbital     on Fragment
 --------------------------------------------------------------------------------------
     1       1      2.000     -10.066 au  C             1.00      1 S               1
                        (    -273.921 eV)
     2       2      2.000      -0.501 au  C             1.00      2 S               1
                        (     -13.620 eV)
     3       3       --         0.373 au  C             1.00      3 S               1
                        (      10.158 eV)
     4       4       --         5.405 au  C             1.00      4 S               1
                        (     147.073 eV)
     5       5       --        49.848 au  C             1.00      5 S               1
                        (    1356.422 eV)
     6       6      0.667      -0.193 au  C             1.00      1 P:x             1
                        (      -5.239 eV)
     7       7       --         0.169 au  C             1.00      2 P:x             1
                        (       4.589 eV)
     8       8       --         2.013 au  C             1.00      3 P:x             1
                        (      54.789 eV)
     9       9      0.667      -0.193 au  C             1.00      1 P:y             1
                        (      -5.239 eV)
    10      10       --         0.169 au  C             1.00      2 P:y             1
                        (       4.589 eV)
    11      11       --         2.013 au  C             1.00      3 P:y             1
                        (      54.789 eV)
    12      12      0.667      -0.193 au  C             1.00      1 P:z             1
                        (      -5.239 eV)
    13      13       --         0.169 au  C             1.00      2 P:z             1
                        (       4.589 eV)
    14      14       --         2.013 au  C             1.00      3 P:z             1
                        (      54.789 eV)
    15      15       --         1.243 au  C             1.00      1 D:z2            1
                        (      33.824 eV)
    16      16       --         1.243 au  C             1.00      1 D:x2-y2         1
                        (      33.824 eV)
    17      17       --         1.243 au  C             1.00      1 D:xy            1
                        (      33.824 eV)
    18      18       --         1.243 au  C             1.00      1 D:xz            1
                        (      33.824 eV)
    19      19       --         1.243 au  C             1.00      1 D:yz            1
                        (      33.824 eV)
    20      20       --         4.016 au  C             1.00      1 F:z3            1
                        (     109.271 eV)
    21      21       --         4.016 au  C             1.00      1 F:z             1
                        (     109.271 eV)
[...]
                                   16.42%     2 S               2.394  0.00     6 H
                                    7.59%     1 S              -6.532  1.00     6 H
                                    4.71%     2 S               2.394  0.00     5 H
                                    4.61%     1 P:x            -5.239  0.67     1 C
                                    4.49%     1 S              -6.532  1.00     5 H
                                    4.03%     1 P:y            -5.239  0.67     1 C
                                   -3.90%     2 P:y             4.589  0.00     1 C
                                    3.77%     2 S             -18.450  2.00     9 N
                                    3.39%     1 P:x            -7.062  1.00     8 N
                                    2.91%     2 S             -18.450  2.00    10 N
                                   -2.22%     3 S              14.073  0.00    10 N
                                    1.98%     1 P:y            -7.062  1.00    10 N
                                   -1.69%     2 P:x             7.649  0.00     8 N
                                    1.45%     1 P:z            -5.239  0.67     2 C
                                    1.41%     1 P:z            11.051  0.00     6 H
                                    1.39%     1 P:x            -5.239  0.67     2 C
                                   -1.33%     1 S              -6.532  1.00     4 H
                                   -1.24%     2 P:y             7.649  0.00     8 N
                                    1.19%     1 P:y            -9.020  1.33    14 O
                                    1.17%     1 P:z            -5.239  0.67     1 C
       0.102  0.00    49 A         34.88%     2 S               2.394  0.00     4 H
                                   30.39%     1 S              -6.532  1.00     4 H
                                   15.61%     1 S              -6.532  1.00     6 H
                                   11.17%     2 S               2.394  0.00     6 H
                                    9.79%     2 S               2.394  0.00     5 H
                                   -5.31%     2 P:z             4.589  0.00     1 C
                                   -5.07%     3 S              10.158  0.00     2 C
                                   -4.68%     2 P:x             4.589  0.00     2 C
                                    4.01%     1 S              -6.532  1.00     7 H
                                    3.89%     2 S             -13.620  2.00     2 C
                                   -3.15%     2 P:z             4.589  0.00     2 C
                                    2.65%     1 S              -6.532  1.00     5 H
                                    2.55%     2 S             -18.450  2.00     9 N
                                   -2.04%     2 P:y             4.589  0.00     1 C
                                   -1.57%     2 P:z             7.649  0.00     8 N
                                   -1.48%     2 P:y             7.649  0.00     8 N
                                    1.43%     2 S             -18.450  2.00     8 N
                                    1.23%     1 P:x            11.051  0.00     4 H
                                    1.09%     1 P:z            11.051  0.00     6 H
       0.581  0.00    50 A         36.01%     1 S              -6.532  1.00     5 H
                                   30.98%     2 S               2.394  0.00     5 H
                                  -25.41%     2 P:x             4.589  0.00     2 C
                                   16.87%     1 S              -6.532  1.00     7 H
                                   11.69%     1 S              -6.532  1.00     6 H
                                    9.18%     1 S              -6.532  1.00     4 H
                                    9.07%     2 S               2.394  0.00     7 H
                                   -7.91%     2 P:y             4.589  0.00     2 C
                                   -6.26%     2 P:z             7.649  0.00     8 N
                                    6.03%     2 P:x             4.589  0.00     1 C
                                    3.46%     1 P:x            -5.239  0.67     1 C
                                    3.44%     2 S             -13.620  2.00     1 C
                                    2.79%     1 P:x            -5.239  0.67     2 C
                                   -2.72%     4 S               5.292  0.00     3 Cl
                                    2.58%     1 P:z            -5.239  0.67     2 C
                                   -2.36%     2 P:x             7.649  0.00     8 N
                                    1.72%     1 P:z            -7.062  1.00     8 N
                                    1.44%     2 P:z             4.589  0.00     2 C
                                   -1.19%     3 S              10.158  0.00     1 C
                                    1.17%     3 P:x             6.147  0.00     3 Cl
                                   -1.17%     2 P:y             7.649  0.00     8 N
                                    1.10%     3 S              40.869  0.00     4 H
       0.817  0.00    51 A         24.89%     1 P:y            -5.239  0.67     2 C
                                   23.20%     1 S              -6.532  1.00     5 H
                                   19.65%     1 S              -6.532  1.00     6 H
                                   14.97%     1 S              -6.532  1.00     7 H
                                  -11.06%     2 P:z             7.649  0.00     8 N
                                    8.97%     2 S               2.394  0.00     6 H
                                   -7.17%     2 P:z             4.589  0.00     1 C
                                   -7.11%     2 P:x             4.589  0.00     2 C
                                    6.05%     2 S               2.394  0.00     5 H
                                    4.79%     1 P:z            -7.062  1.00     8 N
                                    4.57%     1 S              -6.532  1.00     4 H
                                    4.05%     2 S             -18.450  2.00     9 N
                                   -3.97%     2 P:y             4.589  0.00     2 C
                                    3.93%     2 S             -13.620  2.00     2 C
                                    3.47%     1 P:z            -5.239  0.67     1 C
                                   -2.91%     3 S              14.073  0.00     9 N
                                    2.39%     1 P:y            -7.062  1.00     9 N
                                   -2.10%     2 S               2.394  0.00     7 H
                                    1.99%     1 P:y            11.051  0.00     4 H
                                   -1.93%     1 P:x            -5.239  0.67     2 C
                                    1.54%     1 P:x            11.051  0.00     5 H
                                    1.21%     3 S              40.869  0.00     7 H
                                   -1.19%     2 S               2.394  0.00     4 H
                                    1.09%     3 P:z             6.147  0.00     3 Cl
                                   -1.08%     2 P:z             4.589  0.00     2 C

 Energy gradients wrt nuclear displacements
 ==========================================

     Atom      Cartesian (a.u./angstrom)
                 X         Y         Z
 ----------------------------------------
     1 C    -0.000014 -0.000013  0.000032
     2 C     0.000133 -0.000097 -0.000025
     3 Cl   -0.000017 -0.000098 -0.000111
     4 H     0.000081  0.000064  0.000083
     5 H     0.000108 -0.000027 -0.000050
     6 N    -0.000050  0.000010  0.000109
     7 H    -0.000217  0.000019  0.000012
     8 H    -0.000142  0.000061 -0.000024
     9 N     0.000023  0.000055 -0.000040
    10 O    -0.000051 -0.000025  0.000004
    11 O     0.000044 -0.000112 -0.000107
    12 N     0.000025  0.000066  0.000026
    13 O    -0.000049  0.000061  0.000048
    14 O     0.000127  0.000036  0.000043
 ----------------------------------------



 =======================================================================
 Electrostatic potential at the Nuclei due to electrons and other nuclei
 =======================================================================
  
         Atom                  Potential
         ----                  ---------
     1)   C                  14.60360000
     2)   C                  14.68191275
     3)   Cl                 64.83933774
     4)   H                   1.03098088
     5)   H                   1.03962471
     6)   N                  18.35931916
     7)   H                   0.98302024
     8)   H                   0.97894262
     9)   N                  18.16228590
    10)   O                  22.33930116
    11)   O                  22.33736042
    12)   N                  18.17770084
    13)   O                  22.33450003
    14)   O                  22.33634303
 Mulliken charges used for AMS results%charges...


    =====================
     CALCULATION RESULTS
    =====================

Energy (hartree)            -2.84892777

Gradients (hartree/bohr)
  Index   Atom            d/dx            d/dy            d/dz
      1      C   -0.0000074030   -0.0000069321    0.0000168980
      2      C    0.0000705049   -0.0000513435   -0.0000131589
      3     Cl   -0.0000091227   -0.0000518922   -0.0000588654
      4      H    0.0000429145    0.0000337669    0.0000437397
      5      H    0.0000571090   -0.0000141743   -0.0000266181
      6      N   -0.0000266599    0.0000054215    0.0000574550
      7      H   -0.0001146807    0.0000099308    0.0000064603
      8      H   -0.0000752674    0.0000325320   -0.0000129429
      9      N    0.0000119659    0.0000288796   -0.0000209064
     10      O   -0.0000267731   -0.0000131326    0.0000023056
     11      O    0.0000230943   -0.0000591853   -0.0000564778
     12      N    0.0000130487    0.0000351751    0.0000139575
     13      O   -0.0000256864    0.0000321489    0.0000255574
     14      O    0.0000669559    0.0000188052    0.0000225961


--------------
Atomic charges
--------------
  Index   Atom    Charge
      1      C    0.2090
      2      C    0.4723
      3     Cl   -0.1188
      4      H   -0.1144
      5      H   -0.1014
      6      N    0.0833
      7      H   -0.0104
      8      H   -0.0379
      9      N    0.5451
     10      O   -0.3959
     11      O   -0.3474
     12      N    0.5445
     13      O   -0.3625
     14      O   -0.3655


Dipole moment vector    (Debye):    -1.65163140   -0.51969760   -0.06942022
              magnitude (Debye):     1.73285633


-----------------------
Molecular orbitals info
-----------------------
n orbitals:              312
n spin:                    1

Note: only printing virtual orbitals with
      energy smaller than HOMO + 100. eV

HOMO (eV):              -7.0306
LUMO (eV):              -3.9890
HOMO-LUMO gap (eV):      3.0416

   Index   Energy (eV)    Occupation
     199       92.7444         0.000       
     198       92.0617         0.000       
     197       91.7071         0.000       
     196       91.1958         0.000       
     195       91.1132         0.000       
     194       90.2196         0.000       
     193       90.1072         0.000       
     192       89.3803         0.000       
     191       89.0567         0.000       
     190       87.7545         0.000       
     189       85.8439         0.000       
     188       84.4545         0.000       
     187       83.6522         0.000       
     186       82.9014         0.000       
     185       81.5612         0.000       
     184       80.9418         0.000       
     183       80.7638         0.000       
     182       80.0255         0.000       
     181       78.6402         0.000       
     180       77.3644         0.000       
     179       76.1098         0.000       
     178       75.6538         0.000       
     177       73.7915         0.000       
     176       72.3560         0.000       
     175       71.4172         0.000       
     174       70.5008         0.000       
     173       69.3233         0.000       
     172       68.8489         0.000       
     171       67.3195         0.000       
     170       66.2785         0.000       
     169       65.2091         0.000       
     168       64.4213         0.000       
     167       63.6695         0.000       
     166       62.7844         0.000       
     165       62.0631         0.000       
     164       61.0461         0.000       
     163       60.6979         0.000       
     162       60.0011         0.000       
     161       59.2841         0.000       
     160       58.7300         0.000       
     159       57.6538         0.000       
     158       56.7942         0.000       
     157       56.3361         0.000       
     156       56.0907         0.000       
     155       54.8955         0.000       
     154       53.9913         0.000       
     153       53.5492         0.000       
     152       53.2296         0.000       
     151       53.0833         0.000       
     150       51.7275         0.000       
     149       51.5112         0.000       
     148       50.3011         0.000       
     147       49.7911         0.000       
     146       49.5421         0.000       
     145       48.3709         0.000       
     144       46.7115         0.000       
     143       45.0399         0.000       
     142       44.8673         0.000       
     141       44.2243         0.000       
     140       43.7783         0.000       
     139       43.5298         0.000       
     138       42.1581         0.000       
     137       41.8378         0.000       
     136       41.2317         0.000       
     135       40.3014         0.000       
     134       39.7521         0.000       
     133       39.4078         0.000       
     132       38.8712         0.000       
     131       37.9035         0.000       
     130       37.6539         0.000       
     129       36.9197         0.000       
     128       36.4890         0.000       
     127       35.6269         0.000       
     126       35.4906         0.000       
     125       35.0698         0.000       
     124       34.2814         0.000       
     123       34.1271         0.000       
     122       33.6179         0.000       
     121       33.6086         0.000       
     120       33.2565         0.000       
     119       33.2253         0.000       
     118       32.9112         0.000       
     117       32.3351         0.000       
     116       32.0900         0.000       
     115       31.4095         0.000       
     114       30.4499         0.000       
     113       30.1177         0.000       
     112       29.7459         0.000       
     111       29.3272         0.000       
     110       28.7202         0.000       
     109       28.0303         0.000       
     108       27.6100         0.000       
     107       26.9747         0.000       
     106       26.2573         0.000       
     105       25.7264         0.000       
     104       24.3566         0.000       
     103       23.8738         0.000       
     102       23.3808         0.000       
     101       22.5074         0.000       
     100       22.3616         0.000       
      99       21.0884         0.000       
      98       20.5008         0.000       
      97       20.0285         0.000       
      96       19.4320         0.000       
      95       18.9172         0.000       
      94       18.1630         0.000       
      93       17.9301         0.000       
      92       16.6979         0.000       
      91       16.5553         0.000       
      90       15.7205         0.000       
      89       15.0530         0.000       
      88       14.7283         0.000       
      87       14.3819         0.000       
      86       13.5049         0.000       
      85       13.2824         0.000       
      84       12.7401         0.000       
      83       12.4009         0.000       
      82       11.8530         0.000       
      81       11.6038         0.000       
      80       11.4194         0.000       
      79       10.8676         0.000       
      78       10.5452         0.000       
      77       10.3696         0.000       
      76        9.9663         0.000       
      75        9.5688         0.000       
      74        9.4449         0.000       
      73        9.3247         0.000       
      72        8.8736         0.000       
      71        8.4615         0.000       
      70        8.2024         0.000       
      69        7.9608         0.000       
      68        7.6346         0.000       
      67        7.5251         0.000       
      66        6.8519         0.000       
      65        6.3326         0.000       
      64        6.2509         0.000       
      63        5.9495         0.000       
      62        5.6543         0.000       
      61        5.4391         0.000       
      60        5.2889         0.000       
      59        4.9365         0.000       
      58        4.4758         0.000       
      57        4.1575         0.000       
      56        3.9028         0.000       
      55        3.7342         0.000       
      54        2.6861         0.000       
      53        1.6833         0.000       
      52        1.4641         0.000       
      51        0.8173         0.000       
      50        0.5813         0.000       
      49        0.1024         0.000       
      48       -0.4904         0.000       
      47       -1.2085         0.000       
      46       -1.8253         0.000       
      45       -3.7904         0.000       
      44       -3.9890         0.000 < LUMO
      43       -7.0306         2.000 < HOMO
      42       -7.5355         2.000       
      41       -7.6859         2.000       
      40       -7.9704         2.000       
      39       -8.0774         2.000       
      38       -8.2086         2.000       
      37       -8.5248         2.000       
      36       -8.6084         2.000       
      35       -9.0869         2.000       
      34      -10.8939         2.000       
      33      -11.4872         2.000       
      32      -12.4314         2.000       
      31      -13.1973         2.000       
      30      -13.3144         2.000       
      29      -13.5028         2.000       
      28      -13.6257         2.000       
      27      -14.0295         2.000       
      26      -14.2570         2.000       
      25      -14.8435         2.000       
      24      -15.6191         2.000       
      23      -16.4323         2.000       
      22      -18.4584         2.000       
      21      -20.8946         2.000       
      20      -21.6895         2.000       
      19      -24.7110         2.000       
      18      -27.0999         2.000       
      17      -27.1953         2.000       
      16      -31.3101         2.000       
      15      -31.3589         2.000       
      14     -190.8986         2.000       
      13     -190.9055         2.000       
      12     -191.2047         2.000       
      11     -251.9495         2.000       
      10     -272.8903         2.000       
       9     -274.9523         2.000       
       8     -382.9990         2.000       
       7     -388.1587         2.000       
       6     -388.4960         2.000       
       5     -513.2911         2.000       
       4     -513.3587         2.000       
       3     -513.3709         2.000       
       2     -513.4226         2.000       
       1    -2751.2086         2.000       

AMS application finished. Exiting.
NORMAL TERMINATION
     Total cpu time:    1086.34
  Total system time:       5.04
 Total elapsed time:    1095.49
NORMAL TERMINATION
