
 *******************************************************************************
 *                                                                             *
 *  --------------------------------                                           *
 *   Amsterdam Modeling Suite (AMS)              2026.103                      *
 *  --------------------------------                                           *
 *                                               r260501 2026-05-01 873454b5   *
 *                                                                             *
 *                                                                             *
 *                              =================                              *
 *                              |               |                              *
 *                              |     A M S     |                              *
 *                              |               |                              *
 *                              =================                              *
 *                                                                             *
 *                                                                             *
 *   Online information and documentation:  https://www.scm.com/support/       *
 *   E-mail:  support@scm.com   info@scm.com                                   *
 *                                                                             *
 *   Scientific publications using AMS results must be properly referenced     *
 *   See the User Manuals (or the web site) for recommended citations          *
 *   The terms and conditions of the End User License Agreement apply to       *
 *   the use of AMS, https://www.scm.com/license-terms/                        *
 *                                                                             *
 **********************  x86_64_linux_intel / intelmpi  ************************
 
 Licensed to: Jong-June Jeon / University of Seoul 2026-06-02 13:44:15
 SCM User ID: u30731
  
 AMS 2026.103  RunTime: Jun03-2026 21:56:42  ShM Nodes: 1  Procs: 1

 AMS jobname: c3_eda
 AMS jobid  : 1863073551

 Start   directory: /gpfs/home1/yeseo1ee/projects/eda-asm-prediction/ADF_800/adf_outputs/batch_006/qmrxn20_sn2_C_D_D_E_B_B/
 Results directory: /gpfs/home1/yeseo1ee/projects/eda-asm-prediction/ADF_800/adf_outputs/batch_006/qmrxn20_sn2_C_D_D_E_B_B/c3_eda.results/
 Scratch directory: /tmp/amstmp_c3_eda_kid0.1863073551/

 RNG seed: 90612292 896618581 747260549 -1601435886 -731107490 2045335557 364905682 1396653800



                      ************************************************************************
                      *  ADF 2026.103  RunTime: Jun03-2026 21:56:42  ShM Nodes: 1  Procs: 1  *
                      ************************************************************************
  

       ****************************
       * SINGLE POINT CALCULATION *
       ****************************

--------
Geometry
--------
Formula: C5H9ClFN2
Atoms
  Index Symbol   x (angstrom)   y (angstrom)   z (angstrom)
      1      F     2.53589532    -0.15119522    -0.13387369 adf.f=fA
      2      C     0.49580317    -0.05059622     0.02232682 adf.f=fB
      3      H     1.67555376     1.62475288    -0.07664366 adf.f=fB
      4     Cl    -1.72444542    -0.20764481    -0.03306784 adf.f=fB
      5      C     0.59938780     1.47393191    -0.00193490 adf.f=fB
      6      C     0.65716177    -0.75650169    -1.22865633 adf.f=fB
      7      N     0.69520378    -1.37829902    -2.22701619 adf.f=fB
      8      C     0.65774460    -0.80817088     1.32471863 adf.f=fB
      9      H     1.64850479    -0.58544057     1.71063630 adf.f=fB
     10      H    -0.12129342    -0.53447599     2.03487560 adf.f=fB
     11      H     0.58567421    -1.87816674     1.12948646 adf.f=fB
     12      C     0.10011268     2.12503239     1.28816320 adf.f=fB
     13      H    -0.96682095     1.94579595     1.43236518 adf.f=fB
     14      H     0.64460907     1.76028314     2.16351905 adf.f=fB
     15      H     0.26808491     3.20545319     1.22070541 adf.f=fB
     16      N     0.00414600     2.00942315    -1.22118706 adf.f=fB
     17      H     0.22258201     2.99722376    -1.27902890 adf.f=fB
     18      H    -1.00262407     1.90122479    -1.17101808 adf.f=fB

Total System Charge             -1.00000


----------------
ADF Engine Input
----------------
 
   Basis
     Type TZ2P
     Core None
   End
   XC
     GGA BLYP
     Dispersion GRIMME3 BJDAMP
   End
   Symmetry NOSYM
   NumericalQuality Normal
   Unrestricted No
   SCF
     Iterations 200
     Converge 1.0e-6
   End
   fragments
     fA c1_fragA_ts.results/adf.rkf
     fB c2_fragB_ts.results/adf.rkf
   end
   etsnocv
     enocv 0.05
     ekmin 0.5
   end
   print etslowdin
   Save TAPE21
 

 Title: *** (NO TITLE) ***

 *** adf ***



 ===========================
 A T T A C H E D   F I L E S
 ===========================
  



 ===============================
 M O D E L   P A R A M E T E R S
 ===============================
  
 DENSITY FUNCTIONAL POTENTIAL (scf)
    LDA:                               Exchange only                           == Not Default ==
    Gradient Corrections:              Becke88 LYP                             == Not Default ==

 SPIN  (restricted / unrestr.)
    Molecule:                          Restricted                               
    Fragments:                         Restricted                               

 OTHER ASPECTS
    Relativistic Corrections:          scalar (ZORA,MAPA)                       

    Nuclear Charge Density Model:      Point Charge Nuclei                      
    Core Treatment:                    Frozen Orbital(s)                        

    Hyperfine or Zeeman Interaction:   ---                                      

 Settings for Grimme D3 dispersion correction

      damping                        BJ
      s6                          1.000
      s8                          2.700
      a1                          0.430
      a2                          4.236

 Other (technical) parameters

      alpha                      14.000
      version                         4
 


 Fragment File(s)
 ----------------
 fA:
         file : c1_fragA_ts.results/adf.rkf
         jobid: 91798621
         title: *** adf ***
 fB:
         file : c2_fragB_ts.results/adf.rkf
         jobid: 1024520872
         title: *** adf ***



 ===============
 G E O M E T R Y  ***  3D  Molecule  ***
 ===============
  

 ATOMS
 =====                            X Y Z                    CHARGE
                                (Angstrom)             Nucl     +Core       At.Mass
                       --------------------------    ----------------       -------
    1  F               2.5359   -0.1512   -0.1339      9.00      9.00       18.9984
    2  C               0.4958   -0.0506    0.0223      6.00      6.00       12.0000
    3  H               1.6756    1.6248   -0.0766      1.00      1.00        1.0078
    4  Cl             -1.7244   -0.2076   -0.0331     17.00     17.00       34.9689
    5  C               0.5994    1.4739   -0.0019      6.00      6.00       12.0000
    6  C               0.6572   -0.7565   -1.2287      6.00      6.00       12.0000
    7  N               0.6952   -1.3783   -2.2270      7.00      7.00       14.0031
    8  C               0.6577   -0.8082    1.3247      6.00      6.00       12.0000
    9  H               1.6485   -0.5854    1.7106      1.00      1.00        1.0078
   10  H              -0.1213   -0.5345    2.0349      1.00      1.00        1.0078
   11  H               0.5857   -1.8782    1.1295      1.00      1.00        1.0078
   12  C               0.1001    2.1250    1.2882      6.00      6.00       12.0000
   13  H              -0.9668    1.9458    1.4324      1.00      1.00        1.0078
   14  H               0.6446    1.7603    2.1635      1.00      1.00        1.0078
   15  H               0.2681    3.2055    1.2207      1.00      1.00        1.0078
   16  N               0.0041    2.0094   -1.2212      7.00      7.00       14.0031
   17  H               0.2226    2.9972   -1.2790      1.00      1.00        1.0078
   18  H              -1.0026    1.9012   -1.1710      1.00      1.00        1.0078


 FRAGMENTS
 =========                                     Atoms in this Fragment     Cart. coord.s (Angstrom)
                                               -------------------------------------------------------
    1  fA                                                1  F            2.5359   -0.1512   -0.1339
    2  fB                                                2  C            0.4958   -0.0506    0.0223
                                                         5  C            0.5994    1.4739   -0.0019
                                                         6  C            0.6572   -0.7565   -1.2287
                                                         8  C            0.6577   -0.8082    1.3247
                                                        12  C            0.1001    2.1250    1.2882
                                                         3  H            1.6756    1.6248   -0.0766
                                                         9  H            1.6485   -0.5854    1.7106
                                                        10  H           -0.1213   -0.5345    2.0349
                                                        11  H            0.5857   -1.8782    1.1295
                                                        13  H           -0.9668    1.9458    1.4324
                                                        14  H            0.6446    1.7603    2.1635
                                                        15  H            0.2681    3.2055    1.2207
                                                        17  H            0.2226    2.9972   -1.2790
                                                        18  H           -1.0026    1.9012   -1.1710
                                                         4  Cl          -1.7244   -0.2076   -0.0331
                                                         7  N            0.6952   -1.3783   -2.2270
                                                        16  N            0.0041    2.0094   -1.2212


 Interatomic Distance Matrix (Angstrom)
 --------------------------------------

   1)     0.000
   2)     2.049   0.000
   3)     1.974   2.051   0.000
   4)     4.262   2.226   3.863   0.000
   5)     2.532   1.528   1.089   2.869   0.000
   6)     2.257   1.445   2.835   2.721   2.546   0.000
   7)     3.046   2.620   3.821   3.470   3.619   1.177   0.000
   8)     2.467   1.515   2.986   2.807   2.640   2.554   3.597   0.000
   9)     2.092   2.113   2.843   3.816   2.877   3.107   4.128   1.086   0.000
  10)     3.451   2.160   3.514   2.637   2.950   3.362   4.421   1.089   1.800   0.000
  11)     2.895   2.139   3.862   3.079   3.538   2.612   3.395   1.090   1.772   1.768
          0.000
  12)     3.624   2.548   2.144   3.243   1.529   3.866   4.998   2.986   3.150   2.771
          4.036   0.000
  13)     4.373   2.848   3.060   2.713   2.176   4.126   5.216   3.199   3.650   2.689
          4.138   1.091   0.000
  14)     3.537   2.808   2.470   3.783   2.185   4.224   5.397   2.702   2.591   2.423
          3.783   1.094   1.779   0.000
  15)     4.271   3.477   2.482   4.146   2.145   4.674   5.752   4.034   4.064   3.847
          5.094   1.095   1.777   1.766   0.000
  16)     3.501   2.456   2.062   3.052   1.459   2.842   3.601   3.853   4.247   4.134
          4.580   2.514   2.826   3.454   2.732   0.000
  17)     4.071   3.325   2.332   3.952   2.023   3.779   4.502   4.631   4.879   4.855
          5.450   2.714   3.142   3.682   2.509   1.013   0.000
  18)     4.220   2.735   2.906   2.503   2.029   3.134   3.841   4.041   4.639   4.122
          4.701   2.704   2.604   3.722   3.006   1.014   1.647   0.000

 Min. Distance =    1.0133
 Max. Distance =    5.7515



 =====================================
 S Y M M E T R Y ,   E L E C T R O N S
 =====================================
  
 Symmetry: NOSYM

 Irreducible Representations, including subspecies
 -------------------------------------------------
 A


 Configuration of Valence Electrons
 ==================================
 ( determined in the SCF procedure )

 Total:   80

 Net Charge: -1 (Nuclei minus Electrons)

 Aufbau principle for MO occupations will be applied through SCF cycle no.     100
 Thereafter, the program will assign electrons to MOs that are spatially
 similar to the occupied MOs in a "reference" cycle ("KeepOrbitals").
 The reference cycle is always the PREVIOUS cycle: it will evolve with
 the SCF procedure.
 ***************************************************************************************************



                                      ****************************************
                                      *  B U I L D : (Fragments, Functions)  *
                                      ****************************************
  

 The individual fragments are copies of the corresponding 'Master' fragments defined on the fragment files.
 However, they may have been rotated (and translated) with respect to the Master. The local coordinate axes
 of each fragment (which define for instance the spatial orientation in the current molecule of a fragment
 P:x orbital) are not necessarily those of the molecule.
 The local frame (if different from the molecular one) is printed to enable an interpretation of the expan-
 sion of an MO in Fragment Orbitals.



                                              ************************
                                              *  Fragment Type : fA  *
                                              ************************
  

 Fragment no.    1   (in the list of all fragments)
 -----------------
 The local coordinate frame is identical to the molecular frame.

 Check Atomic Coordinates:

                  Master (on file)          After Computed Tranformation               As specified on Input
           ----------------------------     ----------------------------     ---------------------------------
     1)     2.53590  -0.15120  -0.13387      2.53590  -0.15120  -0.13387       1   2.53590  -0.15120  -0.13387



                                              ************************
                                              *  Fragment Type : fB  *
                                              ************************
  

 Fragment no.    2   (in the list of all fragments)
 -----------------
 The local coordinate frame is identical to the molecular frame.

 Check Atomic Coordinates:

                  Master (on file)          After Computed Tranformation               As specified on Input
           ----------------------------     ----------------------------     ---------------------------------
     1)     0.49580  -0.05060   0.02233      0.49580  -0.05060   0.02233       2   0.49580  -0.05060   0.02233
     2)     0.59939   1.47393  -0.00193      0.59939   1.47393  -0.00193       5   0.59939   1.47393  -0.00193
     3)     0.65716  -0.75650  -1.22866      0.65716  -0.75650  -1.22866       6   0.65716  -0.75650  -1.22866
     4)     0.65774  -0.80817   1.32472      0.65774  -0.80817   1.32472       8   0.65774  -0.80817   1.32472
     5)     0.10011   2.12503   1.28816      0.10011   2.12503   1.28816      12   0.10011   2.12503   1.28816
     6)     1.67555   1.62475  -0.07664      1.67555   1.62475  -0.07664       3   1.67555   1.62475  -0.07664
     7)     1.64850  -0.58544   1.71064      1.64850  -0.58544   1.71064       9   1.64850  -0.58544   1.71064
     8)    -0.12129  -0.53448   2.03488     -0.12129  -0.53448   2.03488      10  -0.12129  -0.53448   2.03488
     9)     0.58567  -1.87817   1.12949      0.58567  -1.87817   1.12949      11   0.58567  -1.87817   1.12949
    10)    -0.96682   1.94580   1.43237     -0.96682   1.94580   1.43237      13  -0.96682   1.94580   1.43237
    11)     0.64461   1.76028   2.16352      0.64461   1.76028   2.16352      14   0.64461   1.76028   2.16352
    12)     0.26808   3.20545   1.22071      0.26808   3.20545   1.22071      15   0.26808   3.20545   1.22071
    13)     0.22258   2.99722  -1.27903      0.22258   2.99722  -1.27903      17   0.22258   2.99722  -1.27903
    14)    -1.00262   1.90122  -1.17102     -1.00262   1.90122  -1.17102      18  -1.00262   1.90122  -1.17102
    15)    -1.72445  -0.20764  -0.03307     -1.72445  -0.20764  -0.03307       4  -1.72445  -0.20764  -0.03307
    16)     0.69520  -1.37830  -2.22702      0.69520  -1.37830  -2.22702       7   0.69520  -1.37830  -2.22702
    17)     0.00415   2.00942  -1.22119      0.00415   2.00942  -1.22119      16   0.00415   2.00942  -1.22119



 =======
 S F O s  ***  (Symmetrized Fragment Orbitals)  ***
 =======
  
 SFOs are linear combinations of (valence) Fragment Orbitals (FOs), such that the SFOs transform as the
 irreducible representations of the (molecular) symmetry group. Each SFO is therefore characterized by
 an irrep of the molecule and by a few (or only one) generating FOs.
 The SFOs constitute a symmetry-adapted basis for the Fock matrix. The MO eigenvector coefficients in
 this basis provide a direct interpretation of the MOs in terms of Frontier Orbital Theory.

 The SFOs are combined with auxiliary Core Functions (CFs) to ensure orthogonalization on the (frozen)
 Core Orbitals (COs). The Core-orthogonalized SFOs (CSFOs) constitute the true Fock basis.

 The FOs, and hence also the (C)SFOs are combinations of the elementary basis functions (BAS). The basis
 functions that participate in the description of the SFOs depend on the irrep. The indices of the
 involved functions are printed below for each irrep.
 (The complete list of primitive basis functions is printed in another section)

 Total nr. of (C)SFOs (summation over all irreps) :   341

 NOTE: a (C)SFO that is defined as a combination of more than one FO is usually NOT normalized.



                                       === A ===
 Nr. of SFOs :  341
 Cartesian basis functions that participate in this irrep (total number =   386) :
      1     2     3     4     5     6     9    12     7    10
     13     8    11    14    15    16    17    18    19    20
     21    22    23    24    25    26    27    28    29    30
     31    32    33    34    35    36    39    42    37    40
     43    38    41    44    45    46    47    48    49    50
     51    52    53    54    55    56    57    58    59    60
     61    62    63    64    65    66    69    72    67    70
     73    68    71    74    75    76    77    78    79    80
     81    82    83    84    85    86    87    88    89    90
     91    92    93    94    95    96    99   102    97   100
    103    98   101   104   105   106   107   108   109   110
    111   112   113   114   115   116   117   118   119   120
    121   122   123   124   125   126   129   132   127   130
    133   128   131   134   135   136   137   138   139   140
    141   142   143   144   145   146   147   148   149   150
    151   152   153   154   155   156   159   162   157   160
    163   158   161   164   165   166   167   168   169   170
    171   172   173   174   175   176   177   178   179   180
    181   182   183   184   185   186   187   188   189   190
    191   192   193   194   195   196   197   198   199   200
    201   202   203   204   205   206   207   208   209   210
    211   212   213   214   215   216   217   218   219   220
    221   222   223   224   225   226   227   228   229   230
    231   232   233   234   235   236   237   238   239   240
    241   242   243   244   245   246   247   248   249   250
    251   252   253   254   255   256   257   258   259   260
    261   262   263   264   265   266   267   268   269   270
    271   272   273   274   275   276   277   278   279   280
    281   282   283   284   285   286   287   288   289   290
    291   292   299   300   301   293   296   302   305   308
    294   297   303   306   309   295   298   304   307   310
    311   312   313   314   315   316   317   318   319   320
    321   322   323   324   325   326   327   328   329   330
    331   332   335   338   333   336   339   334   337   340
    341   342   343   344   345   346   347   348   349   350
    351   352   353   354   355   356   357   358   359   360
    361   362   365   368   363   366   369   364   367   370
    371   372   373   374   375   376   377   378   379   380
    381   382   383   384   385   386

    SFO  (index         Fragment          Generating    Expansion in Fragment Orbitals
  indx  incl.CFs)   Occup   Orb.Energy   FragmentType  Coeff.   Orbital     on Fragment
 --------------------------------------------------------------------------------------
     1       1      2.000     -23.816 au  fA            1.00      1 A               1
                        (    -648.061 eV)
     2       2      2.000      -0.558 au  fA            1.00      2 A               1
                        (     -15.175 eV)
     3       3      2.000       0.108 au  fA            1.00      3 A               1
                        (       2.943 eV)
     4       4      2.000       0.108 au  fA            1.00      4 A               1
                        (       2.943 eV)
     5       5      2.000       0.108 au  fA            1.00      5 A               1
                        (       2.943 eV)
     6       6       --         0.286 au  fA            1.00      6 A               1
                        (       7.775 eV)
     7       7       --         0.812 au  fA            1.00      7 A               1
                        (      22.094 eV)
     8       8       --         0.812 au  fA            1.00      8 A               1
                        (      22.094 eV)
     9       9       --         0.812 au  fA            1.00      9 A               1
                        (      22.094 eV)
    10      10       --         1.565 au  fA            1.00     10 A               1
                        (      42.594 eV)
    11      11       --         1.565 au  fA            1.00     11 A               1
                        (      42.594 eV)
    12      12       --         1.565 au  fA            1.00     12 A               1
                        (      42.594 eV)
    13      13       --         1.565 au  fA            1.00     13 A               1
                        (      42.594 eV)
    14      14       --         1.565 au  fA            1.00     14 A               1
                        (      42.594 eV)
    15      15       --         2.036 au  fA            1.00     15 A               1
                        (      55.390 eV)
    16      16       --         3.895 au  fA            1.00     16 A               1
                        (     106.000 eV)
    17      17       --         3.895 au  fA            1.00     17 A               1
                        (     106.000 eV)
    18      18       --         3.895 au  fA            1.00     18 A               1
                        (     106.000 eV)
    19      19       --         3.895 au  fA            1.00     19 A               1
                        (     106.000 eV)
    20      20       --         3.895 au  fA            1.00     20 A               1
                        (     106.000 eV)
    21      21       --         3.895 au  fA            1.00     21 A               1
                        (     106.000 eV)
    22      22       --         3.895 au  fA            1.00     22 A               1
                        (     106.000 eV)
    23      23       --         5.080 au  fA            1.00     23 A               1
                        (     138.227 eV)
    24      24       --         5.080 au  fA            1.00     24 A               1
                        (     138.227 eV)
    25      25       --         5.080 au  fA            1.00     25 A               1
                        (     138.227 eV)
    26      26       --        48.370 au  fA            1.00     26 A               1
                        (    1316.209 eV)
    27      27      2.000    -101.055 au  fB            1.00      1 A               2
                        (   -2749.836 eV)
    28      28      2.000     -14.038 au  fB            1.00      2 A               2
                        (    -381.999 eV)
    29      29      2.000     -14.020 au  fB            1.00      3 A               2
                        (    -381.496 eV)
    30      30      2.000     -10.052 au  fB            1.00      4 A               2
                        (    -273.535 eV)
    31      31      2.000      -9.995 au  fB            1.00      5 A               2
                        (    -271.984 eV)
    32      32      2.000      -9.978 au  fB            1.00      6 A               2
                        (    -271.519 eV)
    33      33      2.000      -9.957 au  fB            1.00      7 A               2
                        (    -270.943 eV)
    34      34      2.000      -9.933 au  fB            1.00      8 A               2
                        (    -270.303 eV)
    35      35      2.000      -9.208 au  fB            1.00      9 A               2
                        (    -250.566 eV)
    36      36      2.000      -6.975 au  fB            1.00     10 A               2
                        (    -189.793 eV)
    37      37      2.000      -6.965 au  fB            1.00     11 A               2
                        (    -189.538 eV)
    38      38      2.000      -6.965 au  fB            1.00     12 A               2
                        (    -189.532 eV)
    39      39      2.000      -0.851 au  fB            1.00     13 A               2
                        (     -23.165 eV)
    40      40      2.000      -0.828 au  fB            1.00     14 A               2
                        (     -22.531 eV)
    41      41      2.000      -0.768 au  fB            1.00     15 A               2
                        (     -20.896 eV)
    42      42      2.000      -0.703 au  fB            1.00     16 A               2
                        (     -19.143 eV)
    43      43      2.000      -0.681 au  fB            1.00     17 A               2
                        (     -18.538 eV)
    44      44      2.000      -0.643 au  fB            1.00     18 A               2
                        (     -17.485 eV)
    45      45      2.000      -0.572 au  fB            1.00     19 A               2
                        (     -15.564 eV)
    46      46      2.000      -0.496 au  fB            1.00     20 A               2
                        (     -13.488 eV)
    47      47      2.000      -0.461 au  fB            1.00     21 A               2
                        (     -12.551 eV)
    48      48      2.000      -0.437 au  fB            1.00     22 A               2
                        (     -11.893 eV)
    49      49      2.000      -0.419 au  fB            1.00     23 A               2
                        (     -11.397 eV)
    50      50      2.000      -0.402 au  fB            1.00     24 A               2
                        (     -10.940 eV)
    51      51      2.000      -0.383 au  fB            1.00     25 A               2
                        (     -10.429 eV)
    52      52      2.000      -0.375 au  fB            1.00     26 A               2
                        (     -10.208 eV)
    53      53      2.000      -0.363 au  fB            1.00     27 A               2
                        (      -9.873 eV)
    54      54      2.000      -0.357 au  fB            1.00     28 A               2
                        (      -9.707 eV)
    55      55      2.000      -0.332 au  fB            1.00     29 A               2
                        (      -9.045 eV)
    56      56      2.000      -0.325 au  fB            1.00     30 A               2
                        (      -8.856 eV)
    57      57      2.000      -0.303 au  fB            1.00     31 A               2
                        (      -8.250 eV)
    58      58      2.000      -0.284 au  fB            1.00     32 A               2
                        (      -7.720 eV)
    59      59      2.000      -0.258 au  fB            1.00     33 A               2
                        (      -7.013 eV)
    60      60      2.000      -0.252 au  fB            1.00     34 A               2
                        (      -6.855 eV)
    61      61      2.000      -0.225 au  fB            1.00     35 A               2
                        (      -6.124 eV)
    62      62       --        -0.143 au  fB            1.00     36 A               2
                        (      -3.896 eV)
    63      63       --        -0.032 au  fB            1.00     37 A               2
                        (      -0.860 eV)
    64      64       --        -0.027 au  fB            1.00     38 A               2
                        (      -0.724 eV)
    65      65       --        -0.003 au  fB            1.00     39 A               2
                        (      -0.093 eV)
    66      66       --         0.004 au  fB            1.00     40 A               2
                        (       0.106 eV)
    67      67       --         0.019 au  fB            1.00     41 A               2
                        (       0.518 eV)
    68      68       --         0.028 au  fB            1.00     42 A               2
                        (       0.768 eV)
    69      69       --         0.034 au  fB            1.00     43 A               2
                        (       0.918 eV)
    70      70       --         0.047 au  fB            1.00     44 A               2
                        (       1.266 eV)
    71      71       --         0.053 au  fB            1.00     45 A               2
                        (       1.455 eV)
    72      72       --         0.065 au  fB            1.00     46 A               2
                        (       1.771 eV)
    73      73       --         0.078 au  fB            1.00     47 A               2
                        (       2.117 eV)
    74      74       --         0.090 au  fB            1.00     48 A               2
                        (       2.451 eV)
    75      75       --         0.108 au  fB            1.00     49 A               2
                        (       2.938 eV)
    76      76       --         0.126 au  fB            1.00     50 A               2
                        (       3.422 eV)
    77      77       --         0.137 au  fB            1.00     51 A               2
                        (       3.721 eV)
    78      78       --         0.139 au  fB            1.00     52 A               2
                        (       3.787 eV)
    79      79       --         0.153 au  fB            1.00     53 A               2
                        (       4.157 eV)
    80      80       --         0.176 au  fB            1.00     54 A               2
                        (       4.802 eV)
    81      81       --         0.182 au  fB            1.00     55 A               2
                        (       4.940 eV)
    82      82       --         0.201 au  fB            1.00     56 A               2
                        (       5.468 eV)
    83      83       --         0.204 au  fB            1.00     57 A               2
                        (       5.548 eV)
    84      84       --         0.221 au  fB            1.00     58 A               2
                        (       6.010 eV)
    85      85       --         0.230 au  fB            1.00     59 A               2
                        (       6.254 eV)
    86      86       --         0.245 au  fB            1.00     60 A               2
                        (       6.659 eV)
    87      87       --         0.246 au  fB            1.00     61 A               2
                        (       6.688 eV)
    88      88       --         0.265 au  fB            1.00     62 A               2
                        (       7.224 eV)
    89      89       --         0.270 au  fB            1.00     63 A               2
                        (       7.360 eV)
    90      90       --         0.282 au  fB            1.00     64 A               2
                        (       7.670 eV)
    91      91       --         0.288 au  fB            1.00     65 A               2
                        (       7.846 eV)
    92      92       --         0.302 au  fB            1.00     66 A               2
                        (       8.228 eV)
    93      93       --         0.320 au  fB            1.00     67 A               2
                        (       8.695 eV)
    94      94       --         0.334 au  fB            1.00     68 A               2
                        (       9.086 eV)
    95      95       --         0.345 au  fB            1.00     69 A               2
                        (       9.375 eV)
    96      96       --         0.359 au  fB            1.00     70 A               2
                        (       9.767 eV)
    97      97       --         0.373 au  fB            1.00     71 A               2
                        (      10.145 eV)
    98      98       --         0.379 au  fB            1.00     72 A               2
                        (      10.300 eV)
    99      99       --         0.387 au  fB            1.00     73 A               2
                        (      10.535 eV)
   100     100       --         0.399 au  fB            1.00     74 A               2
                        (      10.871 eV)
   101     101       --         0.408 au  fB            1.00     75 A               2
                        (      11.104 eV)
   102     102       --         0.416 au  fB            1.00     76 A               2
                        (      11.325 eV)
   103     103       --         0.423 au  fB            1.00     77 A               2
                        (      11.501 eV)
   104     104       --         0.438 au  fB            1.00     78 A               2
                        (      11.907 eV)
   105     105       --         0.452 au  fB            1.00     79 A               2
                        (      12.297 eV)
   106     106       --         0.459 au  fB            1.00     80 A               2
                        (      12.484 eV)
   107     107       --         0.476 au  fB            1.00     81 A               2
                        (      12.949 eV)
   108     108       --         0.487 au  fB            1.00     82 A               2
                        (      13.259 eV)
   109     109       --         0.495 au  fB            1.00     83 A               2
                        (      13.464 eV)
   110     110       --         0.531 au  fB            1.00     84 A               2
                        (      14.454 eV)
   111     111       --         0.549 au  fB            1.00     85 A               2
                        (      14.928 eV)
   112     112       --         0.567 au  fB            1.00     86 A               2
                        (      15.437 eV)
   113     113       --         0.575 au  fB            1.00     87 A               2
                        (      15.655 eV)
   114     114       --         0.601 au  fB            1.00     88 A               2
                        (      16.345 eV)
   115     115       --         0.610 au  fB            1.00     89 A               2
                        (      16.605 eV)
   116     116       --         0.625 au  fB            1.00     90 A               2
                        (      17.004 eV)
   117     117       --         0.686 au  fB            1.00     91 A               2
                        (      18.662 eV)
   118     118       --         0.714 au  fB            1.00     92 A               2
                        (      19.433 eV)
   119     119       --         0.744 au  fB            1.00     93 A               2
                        (      20.235 eV)
   120     120       --         0.771 au  fB            1.00     94 A               2
                        (      20.985 eV)
   121     121       --         0.775 au  fB            1.00     95 A               2
                        (      21.097 eV)
   122     122       --         0.819 au  fB            1.00     96 A               2
                        (      22.294 eV)
   123     123       --         0.835 au  fB            1.00     97 A               2
                        (      22.724 eV)
   124     124       --         0.869 au  fB            1.00     98 A               2
                        (      23.660 eV)
   125     125       --         0.872 au  fB            1.00     99 A               2
                        (      23.738 eV)
   126     126       --         0.883 au  fB            1.00    100 A               2
                        (      24.026 eV)
   127     127       --         0.933 au  fB            1.00    101 A               2
                        (      25.387 eV)
   128     128       --         0.957 au  fB            1.00    102 A               2
                        (      26.054 eV)
   129     129       --         1.000 au  fB            1.00    103 A               2
                        (      27.225 eV)
   130     130       --         1.007 au  fB            1.00    104 A               2
                        (      27.412 eV)
   131     131       --         1.017 au  fB            1.00    105 A               2
                        (      27.671 eV)
   132     132       --         1.028 au  fB            1.00    106 A               2
                        (      27.962 eV)
   133     133       --         1.051 au  fB            1.00    107 A               2
                        (      28.612 eV)
   134     134       --         1.063 au  fB            1.00    108 A               2
                        (      28.919 eV)
   135     135       --         1.077 au  fB            1.00    109 A               2
                        (      29.301 eV)
   136     136       --         1.097 au  fB            1.00    110 A               2
                        (      29.856 eV)
   137     137       --         1.105 au  fB            1.00    111 A               2
                        (      30.074 eV)
   138     138       --         1.132 au  fB            1.00    112 A               2
                        (      30.813 eV)
   139     139       --         1.144 au  fB            1.00    113 A               2
                        (      31.139 eV)
   140     140       --         1.163 au  fB            1.00    114 A               2
                        (      31.660 eV)
   141     141       --         1.178 au  fB            1.00    115 A               2
                        (      32.063 eV)
   142     142       --         1.209 au  fB            1.00    116 A               2
                        (      32.912 eV)
   143     143       --         1.216 au  fB            1.00    117 A               2
                        (      33.084 eV)
   144     144       --         1.235 au  fB            1.00    118 A               2
                        (      33.612 eV)
   145     145       --         1.246 au  fB            1.00    119 A               2
                        (      33.905 eV)
   146     146       --         1.259 au  fB            1.00    120 A               2
                        (      34.251 eV)
   147     147       --         1.270 au  fB            1.00    121 A               2
                        (      34.564 eV)
   148     148       --         1.284 au  fB            1.00    122 A               2
                        (      34.940 eV)
   149     149       --         1.290 au  fB            1.00    123 A               2
                        (      35.116 eV)
   150     150       --         1.302 au  fB            1.00    124 A               2
                        (      35.434 eV)
   151     151       --         1.314 au  fB            1.00    125 A               2
                        (      35.764 eV)
   152     152       --         1.350 au  fB            1.00    126 A               2
                        (      36.728 eV)
   153     153       --         1.358 au  fB            1.00    127 A               2
                        (      36.964 eV)
   154     154       --         1.370 au  fB            1.00    128 A               2
                        (      37.292 eV)
   155     155       --         1.394 au  fB            1.00    129 A               2
                        (      37.932 eV)
   156     156       --         1.411 au  fB            1.00    130 A               2
                        (      38.393 eV)
   157     157       --         1.416 au  fB            1.00    131 A               2
                        (      38.536 eV)
   158     158       --         1.435 au  fB            1.00    132 A               2
                        (      39.054 eV)
   159     159       --         1.445 au  fB            1.00    133 A               2
                        (      39.311 eV)
   160     160       --         1.473 au  fB            1.00    134 A               2
                        (      40.071 eV)
   161     161       --         1.490 au  fB            1.00    135 A               2
                        (      40.555 eV)
   162     162       --         1.542 au  fB            1.00    136 A               2
                        (      41.972 eV)
   163     163       --         1.572 au  fB            1.00    137 A               2
                        (      42.777 eV)
   164     164       --         1.588 au  fB            1.00    138 A               2
                        (      43.215 eV)
   165     165       --         1.613 au  fB            1.00    139 A               2
                        (      43.901 eV)
   166     166       --         1.655 au  fB            1.00    140 A               2
                        (      45.047 eV)
   167     167       --         1.668 au  fB            1.00    141 A               2
                        (      45.383 eV)
   168     168       --         1.679 au  fB            1.00    142 A               2
                        (      45.693 eV)
   169     169       --         1.708 au  fB            1.00    143 A               2
                        (      46.488 eV)
   170     170       --         1.732 au  fB            1.00    144 A               2
                        (      47.117 eV)
   171     171       --         1.757 au  fB            1.00    145 A               2
                        (      47.810 eV)
   172     172       --         1.775 au  fB            1.00    146 A               2
                        (      48.297 eV)
   173     173       --         1.800 au  fB            1.00    147 A               2
                        (      48.972 eV)
   174     174       --         1.838 au  fB            1.00    148 A               2
                        (      50.022 eV)
   175     175       --         1.874 au  fB            1.00    149 A               2
                        (      50.981 eV)
   176     176       --         1.904 au  fB            1.00    150 A               2
                        (      51.817 eV)
   177     177       --         1.933 au  fB            1.00    151 A               2
                        (      52.586 eV)
   178     178       --         1.943 au  fB            1.00    152 A               2
                        (      52.868 eV)
   179     179       --         1.972 au  fB            1.00    153 A               2
                        (      53.669 eV)
   180     180       --         1.998 au  fB            1.00    154 A               2
                        (      54.378 eV)
   181     181       --         2.040 au  fB            1.00    155 A               2
                        (      55.498 eV)
   182     182       --         2.049 au  fB            1.00    156 A               2
                        (      55.752 eV)
   183     183       --         2.074 au  fB            1.00    157 A               2
                        (      56.446 eV)
   184     184       --         2.089 au  fB            1.00    158 A               2
                        (      56.854 eV)
   185     185       --         2.116 au  fB            1.00    159 A               2
                        (      57.580 eV)
   186     186       --         2.131 au  fB            1.00    160 A               2
                        (      57.998 eV)
   187     187       --         2.188 au  fB            1.00    161 A               2
                        (      59.547 eV)
   188     188       --         2.220 au  fB            1.00    162 A               2
                        (      60.421 eV)
   189     189       --         2.247 au  fB            1.00    163 A               2
                        (      61.138 eV)
   190     190       --         2.281 au  fB            1.00    164 A               2
                        (      62.066 eV)
   191     191       --         2.309 au  fB            1.00    165 A               2
                        (      62.826 eV)
   192     192       --         2.335 au  fB            1.00    166 A               2
                        (      63.540 eV)
   193     193       --         2.373 au  fB            1.00    167 A               2
                        (      64.568 eV)
   194     194       --         2.385 au  fB            1.00    168 A               2
                        (      64.909 eV)
   195     195       --         2.401 au  fB            1.00    169 A               2
                        (      65.327 eV)
   196     196       --         2.442 au  fB            1.00    170 A               2
                        (      66.462 eV)
   197     197       --         2.453 au  fB            1.00    171 A               2
                        (      66.757 eV)
   198     198       --         2.481 au  fB            1.00    172 A               2
                        (      67.498 eV)
   199     199       --         2.506 au  fB            1.00    173 A               2
                        (      68.191 eV)
   200     200       --         2.551 au  fB            1.00    174 A               2
                        (      69.406 eV)
   201     201       --         2.600 au  fB            1.00    175 A               2
                        (      70.740 eV)
   202     202       --         2.621 au  fB            1.00    176 A               2
                        (      71.331 eV)
   203     203       --         2.645 au  fB            1.00    177 A               2
                        (      71.986 eV)
   204     204       --         2.665 au  fB            1.00    178 A               2
                        (      72.528 eV)
   205     205       --         2.697 au  fB            1.00    179 A               2
                        (      73.385 eV)
   206     206       --         2.738 au  fB            1.00    180 A               2
                        (      74.517 eV)
   207     207       --         2.750 au  fB            1.00    181 A               2
                        (      74.820 eV)
   208     208       --         2.800 au  fB            1.00    182 A               2
                        (      76.180 eV)
   209     209       --         2.826 au  fB            1.00    183 A               2
                        (      76.888 eV)
   210     210       --         2.829 au  fB            1.00    184 A               2
                        (      76.983 eV)
   211     211       --         2.841 au  fB            1.00    185 A               2
                        (      77.300 eV)
   212     212       --         2.864 au  fB            1.00    186 A               2
                        (      77.932 eV)
   213     213       --         2.886 au  fB            1.00    187 A               2
                        (      78.539 eV)
   214     214       --         2.903 au  fB            1.00    188 A               2
                        (      78.996 eV)
   215     215       --         2.937 au  fB            1.00    189 A               2
                        (      79.906 eV)
   216     216       --         2.949 au  fB            1.00    190 A               2
                        (      80.238 eV)
   217     217       --         2.960 au  fB            1.00    191 A               2
                        (      80.548 eV)
   218     218       --         2.966 au  fB            1.00    192 A               2
                        (      80.715 eV)
   219     219       --         2.999 au  fB            1.00    193 A               2
                        (      81.595 eV)
   220     220       --         3.033 au  fB            1.00    194 A               2
                        (      82.520 eV)
   221     221       --         3.043 au  fB            1.00    195 A               2
                        (      82.793 eV)
   222     222       --         3.080 au  fB            1.00    196 A               2
                        (      83.818 eV)
   223     223       --         3.118 au  fB            1.00    197 A               2
                        (      84.840 eV)
   224     224       --         3.165 au  fB            1.00    198 A               2
                        (      86.132 eV)
   225     225       --         3.182 au  fB            1.00    199 A               2
                        (      86.594 eV)
   226     226       --         3.219 au  fB            1.00    200 A               2
                        (      87.588 eV)
   227     227       --         3.239 au  fB            1.00    201 A               2
                        (      88.134 eV)
   228     228       --         3.320 au  fB            1.00    202 A               2
                        (      90.333 eV)
   229     229       --         3.367 au  fB            1.00    203 A               2
                        (      91.619 eV)
   230     230       --         3.400 au  fB            1.00    204 A               2
                        (      92.515 eV)
   231     231       --         3.423 au  fB            1.00    205 A               2
                        (      93.156 eV)
   232     232       --         3.433 au  fB            1.00    206 A               2
                        (      93.412 eV)
   233     233       --         3.464 au  fB            1.00    207 A               2
                        (      94.248 eV)
   234     234       --         3.487 au  fB            1.00    208 A               2
                        (      94.882 eV)
   235     235       --         3.491 au  fB            1.00    209 A               2
                        (      95.005 eV)
   236     236       --         3.512 au  fB            1.00    210 A               2
                        (      95.554 eV)
   237     237       --         3.544 au  fB            1.00    211 A               2
                        (      96.424 eV)
   238     238       --         3.573 au  fB            1.00    212 A               2
                        (      97.223 eV)
   239     239       --         3.624 au  fB            1.00    213 A               2
                        (      98.606 eV)
   240     240       --         3.637 au  fB            1.00    214 A               2
                        (      98.970 eV)
   241     241       --         3.658 au  fB            1.00    215 A               2
                        (      99.536 eV)
   242     242       --         3.688 au  fB            1.00    216 A               2
                        (     100.360 eV)
   243     243       --         3.723 au  fB            1.00    217 A               2
                        (     101.320 eV)
   244     244       --         3.763 au  fB            1.00    218 A               2
                        (     102.404 eV)
   245     245       --         3.785 au  fB            1.00    219 A               2
                        (     102.997 eV)
   246     246       --         3.809 au  fB            1.00    220 A               2
                        (     103.662 eV)
   247     247       --         3.816 au  fB            1.00    221 A               2
                        (     103.836 eV)
   248     248       --         3.852 au  fB            1.00    222 A               2
                        (     104.821 eV)
   249     249       --         3.886 au  fB            1.00    223 A               2
                        (     105.737 eV)
   250     250       --         3.896 au  fB            1.00    224 A               2
                        (     106.003 eV)
   251     251       --         3.926 au  fB            1.00    225 A               2
                        (     106.823 eV)
   252     252       --         3.938 au  fB            1.00    226 A               2
                        (     107.160 eV)
   253     253       --         4.022 au  fB            1.00    227 A               2
                        (     109.438 eV)
   254     254       --         4.041 au  fB            1.00    228 A               2
                        (     109.955 eV)
   255     255       --         4.066 au  fB            1.00    229 A               2
                        (     110.644 eV)
   256     256       --         4.134 au  fB            1.00    230 A               2
                        (     112.501 eV)
   257     257       --         4.169 au  fB            1.00    231 A               2
                        (     113.453 eV)
   258     258       --         4.186 au  fB            1.00    232 A               2
                        (     113.911 eV)
   259     259       --         4.303 au  fB            1.00    233 A               2
                        (     117.102 eV)
   260     260       --         4.359 au  fB            1.00    234 A               2
                        (     118.620 eV)
   261     261       --         4.398 au  fB            1.00    235 A               2
                        (     119.679 eV)
   262     262       --         4.414 au  fB            1.00    236 A               2
                        (     120.112 eV)
   263     263       --         4.436 au  fB            1.00    237 A               2
                        (     120.715 eV)
   264     264       --         4.471 au  fB            1.00    238 A               2
                        (     121.657 eV)
   265     265       --         4.522 au  fB            1.00    239 A               2
                        (     123.042 eV)
   266     266       --         4.547 au  fB            1.00    240 A               2
                        (     123.717 eV)
   267     267       --         4.595 au  fB            1.00    241 A               2
                        (     125.037 eV)
   268     268       --         4.644 au  fB            1.00    242 A               2
                        (     126.372 eV)
   269     269       --         4.671 au  fB            1.00    243 A               2
                        (     127.107 eV)
   270     270       --         4.730 au  fB            1.00    244 A               2
                        (     128.703 eV)
   271     271       --         4.741 au  fB            1.00    245 A               2
                        (     129.018 eV)
   272     272       --         4.805 au  fB            1.00    246 A               2
                        (     130.742 eV)
   273     273       --         4.837 au  fB            1.00    247 A               2
                        (     131.615 eV)
   274     274       --         4.904 au  fB            1.00    248 A               2
                        (     133.443 eV)
   275     275       --         4.934 au  fB            1.00    249 A               2
                        (     134.274 eV)
   276     276       --         4.957 au  fB            1.00    250 A               2
                        (     134.883 eV)
   277     277       --         5.000 au  fB            1.00    251 A               2
                        (     136.070 eV)
   278     278       --         5.021 au  fB            1.00    252 A               2
                        (     136.640 eV)
   279     279       --         5.098 au  fB            1.00    253 A               2
                        (     138.717 eV)
   280     280       --         5.176 au  fB            1.00    254 A               2
                        (     140.838 eV)
   281     281       --         5.200 au  fB            1.00    255 A               2
                        (     141.507 eV)
   282     282       --         5.275 au  fB            1.00    256 A               2
                        (     143.552 eV)
   283     283       --         5.297 au  fB            1.00    257 A               2
                        (     144.138 eV)
   284     284       --         5.366 au  fB            1.00    258 A               2
                        (     146.019 eV)
   285     285       --         5.386 au  fB            1.00    259 A               2
                        (     146.558 eV)
   286     286       --         5.426 au  fB            1.00    260 A               2
                        (     147.640 eV)
   287     287       --         5.466 au  fB            1.00    261 A               2
                        (     148.747 eV)
   288     288       --         5.497 au  fB            1.00    262 A               2
                        (     149.591 eV)
   289     289       --         5.578 au  fB            1.00    263 A               2
                        (     151.798 eV)
   290     290       --         5.589 au  fB            1.00    264 A               2
                        (     152.077 eV)
   291     291       --         5.655 au  fB            1.00    265 A               2
                        (     153.893 eV)
   292     292       --         5.724 au  fB            1.00    266 A               2
                        (     155.752 eV)
   293     293       --         5.763 au  fB            1.00    267 A               2
                        (     156.823 eV)
   294     294       --         6.012 au  fB            1.00    268 A               2
                        (     163.598 eV)
   295     295       --         6.130 au  fB            1.00    269 A               2
                        (     166.792 eV)
   296     296       --         6.189 au  fB            1.00    270 A               2
                        (     168.414 eV)
   297     297       --         6.270 au  fB            1.00    271 A               2
                        (     170.612 eV)
   298     298       --         6.288 au  fB            1.00    272 A               2
                        (     171.118 eV)
   299     299       --         6.366 au  fB            1.00    273 A               2
                        (     173.231 eV)
   300     300       --         6.399 au  fB            1.00    274 A               2
                        (     174.136 eV)
   301     301       --         6.437 au  fB            1.00    275 A               2
                        (     175.165 eV)
   302     302       --         6.469 au  fB            1.00    276 A               2
                        (     176.022 eV)
   303     303       --         6.489 au  fB            1.00    277 A               2
                        (     176.565 eV)
   304     304       --         6.536 au  fB            1.00    278 A               2
                        (     177.841 eV)
   305     305       --         6.537 au  fB            1.00    279 A               2
                        (     177.872 eV)
   306     306       --         6.589 au  fB            1.00    280 A               2
                        (     179.289 eV)
   307     307       --         6.618 au  fB            1.00    281 A               2
                        (     180.096 eV)
   308     308       --         6.678 au  fB            1.00    282 A               2
                        (     181.730 eV)
   309     309       --         6.717 au  fB            1.00    283 A               2
                        (     182.786 eV)
   310     310       --         6.913 au  fB            1.00    284 A               2
                        (     188.107 eV)
   311     311       --         6.982 au  fB            1.00    285 A               2
                        (     189.997 eV)
   312     312       --         7.068 au  fB            1.00    286 A               2
                        (     192.342 eV)
   313     313       --         7.287 au  fB            1.00    287 A               2
                        (     198.301 eV)
   314     314       --         7.325 au  fB            1.00    288 A               2
                        (     199.313 eV)
   315     315       --         7.393 au  fB            1.00    289 A               2
                        (     201.168 eV)
   316     316       --         7.427 au  fB            1.00    290 A               2
                        (     202.111 eV)
   317     317       --         7.542 au  fB            1.00    291 A               2
                        (     205.241 eV)
   318     318       --         7.572 au  fB            1.00    292 A               2
                        (     206.048 eV)
   319     319       --         7.602 au  fB            1.00    293 A               2
                        (     206.870 eV)
   320     320       --         7.629 au  fB            1.00    294 A               2
                        (     207.594 eV)
   321     321       --         7.683 au  fB            1.00    295 A               2
                        (     209.076 eV)
   322     322       --         7.803 au  fB            1.00    296 A               2
                        (     212.317 eV)
   323     323       --         8.254 au  fB            1.00    297 A               2
                        (     224.602 eV)
   324     324       --         8.689 au  fB            1.00    298 A               2
                        (     236.437 eV)
   325     325       --         8.901 au  fB            1.00    299 A               2
                        (     242.219 eV)
   326     326       --         9.105 au  fB            1.00    300 A               2
                        (     247.755 eV)
   327     327       --         9.247 au  fB            1.00    301 A               2
                        (     251.618 eV)
   328     328       --         9.794 au  fB            1.00    302 A               2
                        (     266.506 eV)
   329     329       --        11.414 au  fB            1.00    303 A               2
                        (     310.593 eV)
   330     330       --        14.053 au  fB            1.00    304 A               2
                        (     382.397 eV)
   331     331       --        19.185 au  fB            1.00    305 A               2
                        (     522.055 eV)
   332     332       --        19.272 au  fB            1.00    306 A               2
                        (     524.416 eV)
   333     333       --        19.571 au  fB            1.00    307 A               2
                        (     532.546 eV)
   334     334       --        54.241 au  fB            1.00    308 A               2
                        (    1475.959 eV)
   335     335       --        56.578 au  fB            1.00    309 A               2
                        (    1539.557 eV)
   336     336       --        57.457 au  fB            1.00    310 A               2
                        (    1563.491 eV)
   337     337       --        58.715 au  fB            1.00    311 A               2
                        (    1597.718 eV)
   338     338       --        59.954 au  fB            1.00    312 A               2
                        (    1631.443 eV)
   339     339       --        69.896 au  fB            1.00    313 A               2
                        (    1901.957 eV)
   340     340       --        71.541 au  fB            1.00    314 A               2
                        (    1946.725 eV)
   341     341       --       210.320 au  fB            1.00    315 A               2
                        (    5723.095 eV)



 ================================
 (Slater-type)  F U N C T I O N S  ***  (Basis and Fit)  ***
 ================================
  

 Atom Type    1  (F)
 ==============

 Valence Basis Sets:  10
 -----------------------
   1 S   10.880000
   1 S    7.700000
   2 S    3.240000
   2 S    1.940000
   2 S    0.740000
   2 P    4.540000
   2 P    2.300000
   2 P    1.240000
   3 D    2.000000
   4 F    3.000000

 Atom Type    2  (C)
 ==============

 Valence Basis Sets:  10
 -----------------------
   1 S    7.680000
   1 S    5.000000
   2 S    1.280000
   2 S    2.100000
   2 S    4.600000
   2 P    0.820000
   2 P    1.480000
   2 P    2.940000
   3 D    2.200000
   4 F    3.300000

 Atom Type    3  (H)
 ==============

 Valence Basis Sets:   5
 -----------------------
   1 S    0.690000
   1 S    0.920000
   1 S    1.580000
   2 P    1.250000
   3 D    2.500000

 Atom Type    4  (Cl)
 ==============

 Valence Basis Sets:  14
 -----------------------
   1 S   20.300000
   1 S   15.250000
   2 S    6.250000
   2 S    4.450000
   2 P    8.850000
   2 P    5.050000
   3 S    3.450000
   3 S    2.300000
   3 S    1.600000
   3 P    3.350000
   3 P    2.050000
   3 P    1.200000
   3 D    2.000000
   4 F    2.000000

 Atom Type    5  (N)
 ==============

 Valence Basis Sets:  10
 -----------------------
   1 S    8.740000
   1 S    5.900000
   2 S    5.150000
   2 S    2.500000
   2 S    1.500000
   2 P    3.680000
   2 P    1.880000
   2 P    1.000000
   3 D    2.200000
   4 F    3.300000


 BAS: List of all Elementary Cartesian Basis Functions
 =====================================================

 The numbering in the list below (to the right of the function characteristics) is referred
 to in print-outs of MO eigenvectors and Mulliken populations in the BAS representation
 (as contrasted to the SFO representation).

 Notes:
 1. The functions are characterized by a polynomial prefactor (powers of x,y,z and r) and
    an exponential decay factor alpha.
 2. Since the basis sets are specific for an atom TYPE, the individual functions occur on
    all atoms of that type.
 3. The word 'Core' in the left margin signals that it is a Core Function (CF) : not a
    degree of freedom in the valence set, but only used to ensure orthogonalization of
    the other valence basis functions on the frozen Core Orbitals.


 (power of) X  Y  Z  R     Alpha  on Atom
            ==========     =====     ==========

 F                                    1
                                  ---------------------------------------------------------------------------
            0  0  0  0    10.880      1
            0  0  0  0     7.700      2
            0  0  0  1     3.240      3
            0  0  0  1     1.940      4
            0  0  0  1     0.740      5
            1  0  0  0     4.540      6
            0  1  0  0     4.540      7
            0  0  1  0     4.540      8
            1  0  0  0     2.300      9
            0  1  0  0     2.300     10
            0  0  1  0     2.300     11
            1  0  0  0     1.240     12
            0  1  0  0     1.240     13
            0  0  1  0     1.240     14
            2  0  0  0     2.000     15
            1  1  0  0     2.000     16
            1  0  1  0     2.000     17
            0  2  0  0     2.000     18
            0  1  1  0     2.000     19
            0  0  2  0     2.000     20
            3  0  0  0     3.000     21
            2  1  0  0     3.000     22
            2  0  1  0     3.000     23
            1  2  0  0     3.000     24
            1  1  1  0     3.000     25
            1  0  2  0     3.000     26
            0  3  0  0     3.000     27
            0  2  1  0     3.000     28
            0  1  2  0     3.000     29
            0  0  3  0     3.000     30

 C                                    2    3    4    5    6
                                  ---------------------------------------------------------------------------
            0  0  0  0     7.680     31   61   91  121  151
            0  0  0  0     5.000     32   62   92  122  152
            0  0  0  1     1.280     33   63   93  123  153
            0  0  0  1     2.100     34   64   94  124  154
            0  0  0  1     4.600     35   65   95  125  155
            1  0  0  0     0.820     36   66   96  126  156
            0  1  0  0     0.820     37   67   97  127  157
            0  0  1  0     0.820     38   68   98  128  158
            1  0  0  0     1.480     39   69   99  129  159
            0  1  0  0     1.480     40   70  100  130  160
            0  0  1  0     1.480     41   71  101  131  161
            1  0  0  0     2.940     42   72  102  132  162
            0  1  0  0     2.940     43   73  103  133  163
            0  0  1  0     2.940     44   74  104  134  164
            2  0  0  0     2.200     45   75  105  135  165
            1  1  0  0     2.200     46   76  106  136  166
            1  0  1  0     2.200     47   77  107  137  167
            0  2  0  0     2.200     48   78  108  138  168
            0  1  1  0     2.200     49   79  109  139  169
            0  0  2  0     2.200     50   80  110  140  170
            3  0  0  0     3.300     51   81  111  141  171
            2  1  0  0     3.300     52   82  112  142  172
            2  0  1  0     3.300     53   83  113  143  173
            1  2  0  0     3.300     54   84  114  144  174
            1  1  1  0     3.300     55   85  115  145  175
            1  0  2  0     3.300     56   86  116  146  176
            0  3  0  0     3.300     57   87  117  147  177
            0  2  1  0     3.300     58   88  118  148  178
            0  1  2  0     3.300     59   89  119  149  179
            0  0  3  0     3.300     60   90  120  150  180

 H                                    7    8    9   10   11   12   13   14   15
                                  ---------------------------------------------------------------------------
            0  0  0  0     0.690    181  193  205  217  229  241  253  265  277
            0  0  0  0     0.920    182  194  206  218  230  242  254  266  278
            0  0  0  0     1.580    183  195  207  219  231  243  255  267  279
            1  0  0  0     1.250    184  196  208  220  232  244  256  268  280
            0  1  0  0     1.250    185  197  209  221  233  245  257  269  281
            0  0  1  0     1.250    186  198  210  222  234  246  258  270  282
            2  0  0  0     2.500    187  199  211  223  235  247  259  271  283
            1  1  0  0     2.500    188  200  212  224  236  248  260  272  284
            1  0  1  0     2.500    189  201  213  225  237  249  261  273  285
            0  2  0  0     2.500    190  202  214  226  238  250  262  274  286
            0  1  1  0     2.500    191  203  215  227  239  251  263  275  287
            0  0  2  0     2.500    192  204  216  228  240  252  264  276  288

 Cl                                  16
                                  ---------------------------------------------------------------------------
            0  0  0  0    20.300    289
            0  0  0  0    15.250    290
            0  0  0  1     6.250    291
            0  0  0  1     4.450    292
            1  0  0  0     8.850    293
            0  1  0  0     8.850    294
            0  0  1  0     8.850    295
            1  0  0  0     5.050    296
            0  1  0  0     5.050    297
            0  0  1  0     5.050    298
            0  0  0  2     3.450    299
            0  0  0  2     2.300    300
            0  0  0  2     1.600    301
            1  0  0  1     3.350    302
            0  1  0  1     3.350    303
            0  0  1  1     3.350    304
            1  0  0  1     2.050    305
            0  1  0  1     2.050    306
            0  0  1  1     2.050    307
            1  0  0  1     1.200    308
            0  1  0  1     1.200    309
            0  0  1  1     1.200    310
            2  0  0  0     2.000    311
            1  1  0  0     2.000    312
            1  0  1  0     2.000    313
            0  2  0  0     2.000    314
            0  1  1  0     2.000    315
            0  0  2  0     2.000    316
            3  0  0  0     2.000    317
            2  1  0  0     2.000    318
            2  0  1  0     2.000    319
            1  2  0  0     2.000    320
            1  1  1  0     2.000    321
            1  0  2  0     2.000    322
            0  3  0  0     2.000    323
            0  2  1  0     2.000    324
            0  1  2  0     2.000    325
            0  0  3  0     2.000    326

 N                                   17   18
                                  ---------------------------------------------------------------------------
            0  0  0  0     8.740    327  357
            0  0  0  0     5.900    328  358
            0  0  0  1     5.150    329  359
            0  0  0  1     2.500    330  360
            0  0  0  1     1.500    331  361
            1  0  0  0     3.680    332  362
            0  1  0  0     3.680    333  363
            0  0  1  0     3.680    334  364
            1  0  0  0     1.880    335  365
            0  1  0  0     1.880    336  366
            0  0  1  0     1.880    337  367
            1  0  0  0     1.000    338  368
            0  1  0  0     1.000    339  369
            0  0  1  0     1.000    340  370
            2  0  0  0     2.200    341  371
            1  1  0  0     2.200    342  372
            1  0  1  0     2.200    343  373
            0  2  0  0     2.200    344  374
            0  1  1  0     2.200    345  375
            0  0  2  0     2.200    346  376
            3  0  0  0     3.300    347  377
            2  1  0  0     3.300    348  378
            2  0  1  0     3.300    349  379
            1  2  0  0     3.300    350  380
            1  1  1  0     3.300    351  381
            1  0  2  0     3.300    352  382
            0  3  0  0     3.300    353  383
            0  2  1  0     3.300    354  384
            0  1  2  0     3.300    355  385
            0  0  3  0     3.300    356  386

 Total number of charge fitting functions (nprimf)      1229
 Total number of Cartesian basis functions (naos)        386
 Total number of Cartesian core functions  (ncos)          0

 ***************************************************************************************************



                                              ***********************
                                              *  T E C H N I C A L  *
                                              ***********************
  



 =============================================================
 P A R A L L E L I Z A T I O N  and  V E C T O R I Z A T I O N
 =============================================================
  
 Nr of parallel processes:                                1
 Maximum vector length in NumInt loops:                 128



 =====================
 S C F   U P D A T E S
 =====================
  
 Max. nr. of cycles:                               200
 Convergence criterion:                              0.0000010000
   secondary criterion:                              0.0010000000

 Mix parameter (when DIIS does not apply):           0.2000000000
 Mixed ADIIS+SDIIS will be used                  
    Max number of expansion vectors:                10
    Pure ADIIS when Max([F,P]) is above              0.1000000000
    Pure SDIIS when Max([F,P]) is below              0.0010000000
 Automatic ElectronSmearing (in case of problematic SCF convergence) disabled



 =================
 P R E C I S I O N  ***  (General: NumInt, NeglectFunctionTails, ...)  ***
 =================
  

 NumInt:           Target precision:                 4.0000000000
 -------           Initial precision:                4.0000000000
                   Min. precision (optimization):    4.0000000000

 Neglect Functions:          Basis functions:        0.1000000000E-05
 ------------------          Fit functions:          0.1000000000E-05



 ===========================
 L I N E A R   S C A L I N G
 ===========================
  

 Cut-off radii density fit:                        0.1000000000E-07
 Overlap cut-off criterion AO matrix elements:     0.1000000000E-05
 Cut-offs for Coulomb potential and fitted density:0.1000000000E-07
 Cut-off criterion for Coulomb multipole terms:    0.1000000000E-07
 Progressive Convergence parameter:                 0.000000000    
 ***************************************************************************************************



                                            ***************************
                                            *  C O M P U T A T I O N  *
                                            ***************************
  

 Number of elements of the density matrix on this node (used, total):     74691     74691



 ===========================================
 Numerical Integration : Fuzzy Cells (Becke)
 ===========================================
  
 Becke grid quality: NORMAL         
  
 Lebedev angular grid order:             min:  11 max:  23
 Nr. of radial points:                   min:  46 max:  67

 Total nr. of points:     119442
 Nr. of blocks:              934
 Block length:               128
 Nr. of dummy points:        110


 Test of Precision of the Numerical Integration Grid
 ===================================================

 Integral of the Total Core Density:                   0.00000000000000



 ========================
 Density Fitting (zlmFit)
 ========================
  
 ZlmFit Fit Quality: NORMAL         
  
 Max L-expansion:                        min:   6 max:   7
 Nr. of radial interpolation points:     min:  39 max:  60



 =====
 S C F  ***  ScaSCF  ***
 =====
  
 Initial density matrix is calculated as sum of fragments

 CYCLE    1
 SCF Error: norm([F,P])=      0.836125194606, max([F,P])=      0.291728895718
 orbitals (Q,E):
 ---------------
 A :31...50          ( 2.00    -0.1543)  ( 2.00    -0.1455)  ( 2.00    -0.1341)  ( 2.00    -0.1247)
                     ( 2.00    -0.1119)  ( 2.00    -0.1065)  ( 2.00    -0.0713)  ( 2.00     0.0194)
                     ( 2.00     0.0625)  ( 2.00     0.0628)  ( 0.00     0.0962)  ( 0.00     0.1248)
                     ( 0.00     0.1288)  ( 0.00     0.1389)  ( 0.00     0.1558)  ( 0.00     0.1729)
                     ( 0.00     0.1761)  ( 0.00     0.1815)  ( 0.00     0.2070)  ( 0.00     0.2173)

 CYCLE    2
  SDIIS (wt  0.000):  0.7253  0.2747
 A-DIIS (wt  1.000):  0.9801  0.0199
  DIIS coefficients:  0.9801  0.0199
 SCF Error: norm([F,P])=      1.484591953894, max([F,P])=      0.539073865005
 orbitals (Q,E):
 ---------------
 A :31...41          ( 2.00    -0.1527)  ( 2.00    -0.1456)  ( 2.00    -0.1312)  ( 2.00    -0.1219)
                     ( 2.00    -0.1114)  ( 2.00    -0.1047)  ( 2.00    -0.0716)  ( 2.00     0.0111)
                     ( 2.00     0.0477)  ( 2.00     0.0478)  ( 0.00     0.0963)

 CYCLE    3
  SDIIS (wt  0.000):  0.3952 -2.0000  2.6048
 A-DIIS (wt  1.000):  0.9754  0.0000  0.0246
  DIIS coefficients:  0.9754  0.0000  0.0246
 SCF Error: norm([F,P])=      1.226096275728, max([F,P])=      0.439906432786
 orbitals (Q,E):
 ---------------
 A :31...41          ( 2.00    -0.1527)  ( 2.00    -0.1457)  ( 2.00    -0.1309)  ( 2.00    -0.1216)
                     ( 2.00    -0.1116)  ( 2.00    -0.1046)  ( 2.00    -0.0718)  ( 2.00     0.0105)
[...]
                                    2.02%    48 A               2.451  0.00     2 fB
                                    1.85%    37 A              -0.860  0.00     2 fB
                                    1.79%    60 A               6.659  0.00     2 fB
                                    1.34%    40 A               0.106  0.00     2 fB
                                    1.25%    23 A             -11.397  2.00     2 fB
                                    1.11%    39 A              -0.093  0.00     2 fB
      -0.05582         7 A         14.85%    30 A              -8.856  2.00     2 fB
                                   10.24%    32 A              -7.720  2.00     2 fB
                                    8.17%    45 A               1.455  0.00     2 fB
                                    7.61%    41 A               0.518  0.00     2 fB
                                    6.75%    29 A              -9.045  2.00     2 fB
                                    6.22%    31 A              -8.250  2.00     2 fB
                                    5.66%    52 A               3.787  0.00     2 fB
                                    3.91%     7 A              22.094  0.00     1 fA
                                    3.67%    55 A               4.940  0.00     2 fB
                                    3.10%    53 A               4.157  0.00     2 fB
                                    2.30%     8 A              22.094  0.00     1 fA
                                    2.05%    39 A              -0.093  0.00     2 fB
                                    1.97%    24 A             -10.940  2.00     2 fB
                                    1.94%    43 A               0.918  0.00     2 fB
                                    1.80%    27 A              -9.873  2.00     2 fB
                                    1.63%    26 A             -10.208  2.00     2 fB
                                    1.46%    37 A              -0.860  0.00     2 fB
                                    1.31%    62 A               7.224  0.00     2 fB
                                    1.29%    35 A              -6.124  2.00     2 fB
                                    1.09%    42 A               0.768  0.00     2 fB
                                    1.08%    23 A             -11.397  2.00     2 fB
                                    1.05%    44 A               1.266  0.00     2 fB
       0.05582       335 A         14.35%    30 A              -8.856  2.00     2 fB
                                    8.80%    32 A              -7.720  2.00     2 fB
                                    8.52%    45 A               1.455  0.00     2 fB
                                    8.16%    29 A              -9.045  2.00     2 fB
                                    7.58%    41 A               0.518  0.00     2 fB
                                    6.32%    31 A              -8.250  2.00     2 fB
                                    5.82%    52 A               3.787  0.00     2 fB
                                    4.05%    55 A               4.940  0.00     2 fB
                                    3.22%    53 A               4.157  0.00     2 fB
                                    2.23%    43 A               0.918  0.00     2 fB
                                    2.06%    39 A              -0.093  0.00     2 fB
                                    1.97%     7 A              22.094  0.00     1 fA
                                    1.92%    24 A             -10.940  2.00     2 fB
                                    1.71%    62 A               7.224  0.00     2 fB
                                    1.62%    37 A              -0.860  0.00     2 fB
                                    1.56%     8 A              22.094  0.00     1 fA
                                    1.56%    26 A             -10.208  2.00     2 fB
                                    1.45%    27 A              -9.873  2.00     2 fB
                                    1.20%    19 A             -15.564  2.00     2 fB
                                    1.12%    44 A               1.266  0.00     2 fB
                                    1.12%    23 A             -11.397  2.00     2 fB
                                    1.06%    42 A               0.768  0.00     2 fB
                                    1.05%    35 A              -6.124  2.00     2 fB
      -0.05216         8 A         14.84%     8 A              22.094  0.00     1 fA
                                   12.28%    33 A              -7.013  2.00     2 fB
                                    8.29%    24 A             -10.940  2.00     2 fB
                                    7.55%     7 A              22.094  0.00     1 fA
                                    5.52%    28 A              -9.707  2.00     2 fB
                                    3.79%    30 A              -8.856  2.00     2 fB
                                    3.46%    27 A              -9.873  2.00     2 fB
                                    2.78%    39 A              -0.093  0.00     2 fB
                                    2.61%    43 A               0.918  0.00     2 fB
                                    2.55%    50 A               3.422  0.00     2 fB
                                    2.46%    23 A             -11.397  2.00     2 fB
                                    2.02%    42 A               0.768  0.00     2 fB
                                    1.79%    49 A               2.938  0.00     2 fB
                                    1.77%    25 A             -10.429  2.00     2 fB
                                    1.65%     4 A               2.943  2.00     1 fA
                                    1.58%    22 A             -11.893  2.00     2 fB
                                    1.43%    46 A               1.771  0.00     2 fB
                                    1.41%    53 A               4.157  0.00     2 fB
                                    1.27%    66 A               8.228  0.00     2 fB
                                    1.25%    69 A               9.375  0.00     2 fB
                                    1.18%     5 A               2.943  2.00     1 fA
                                    1.13%    38 A              -0.724  0.00     2 fB
                                    1.12%    57 A               5.548  0.00     2 fB
                                    1.06%    26 A             -10.208  2.00     2 fB
       0.05216       334 A         11.90%    33 A              -7.013  2.00     2 fB
                                    9.59%    24 A             -10.940  2.00     2 fB
                                    8.10%     8 A              22.094  0.00     1 fA
                                    6.85%    28 A              -9.707  2.00     2 fB
                                    4.76%    27 A              -9.873  2.00     2 fB
                                    3.78%     7 A              22.094  0.00     1 fA
                                    3.62%    23 A             -11.397  2.00     2 fB
                                    3.54%    30 A              -8.856  2.00     2 fB
                                    2.74%    43 A               0.918  0.00     2 fB
                                    2.58%    39 A              -0.093  0.00     2 fB
                                    2.36%     4 A               2.943  2.00     1 fA
                                    2.28%    50 A               3.422  0.00     2 fB
                                    1.89%    42 A               0.768  0.00     2 fB
                                    1.86%    38 A              -0.724  0.00     2 fB
                                    1.85%    22 A             -11.893  2.00     2 fB
                                    1.65%    10 A              42.594  0.00     1 fA
                                    1.64%    57 A               5.548  0.00     2 fB
                                    1.61%    49 A               2.938  0.00     2 fB
                                    1.33%    46 A               1.771  0.00     2 fB
                                    1.32%    69 A               9.375  0.00     2 fB
                                    1.32%    66 A               8.228  0.00     2 fB
                                    1.31%    53 A               4.157  0.00     2 fB
                                    1.30%     3 A               2.943  2.00     1 fA
                                    1.21%    26 A             -10.208  2.00     2 fB
                                    1.20%    25 A             -10.429  2.00     2 fB
                                    1.09%    45 A               1.455  0.00     2 fB
                                    1.07%    12 A              42.594  0.00     1 fA
                                    1.06%    47 A               2.117  0.00     2 fB
                                    1.06%    18 A             -17.485  2.00     2 fB
                                    1.04%    63 A               7.360  0.00     2 fB
 Mulliken charges used for AMS results%charges...


    =====================
     CALCULATION RESULTS
    =====================

Energy (hartree)            -0.07226459


--------------
Atomic charges
--------------
  Index   Atom    Charge
      1      F   -0.6080
      2      C    0.1427
      3      H   -0.1251
      4     Cl   -0.4726
      5      C    0.3780
      6      C    0.2177
      7      N   -0.3603
      8      C    0.7467
      9      H   -0.2091
     10      H   -0.2332
     11      H   -0.2401
     12      C    0.7133
     13      H   -0.2200
     14      H   -0.2408
     15      H   -0.2835
     16      N   -0.0434
     17      H   -0.1043
     18      H   -0.0580


Dipole moment vector    (Debye):    -2.95939522    3.14446212    4.99478330
              magnitude (Debye):     6.60253908


-----------------------
Molecular orbitals info
-----------------------
n orbitals:              341
n spin:                    1

Note: only printing virtual orbitals with
      energy smaller than HOMO + 100. eV

HOMO (eV):              -1.7714
LUMO (eV):               1.7249
HOMO-LUMO gap (eV):      3.4962

   Index   Energy (eV)    Occupation
     221       97.9045         0.000       
     220       97.6769         0.000       
     219       97.0646         0.000       
     218       96.6618         0.000       
     217       95.6121         0.000       
     216       95.3260         0.000       
     215       92.2357         0.000       
     214       91.1339         0.000       
     213       90.6453         0.000       
     212       89.9172         0.000       
     211       88.7760         0.000       
     210       87.8853         0.000       
     209       87.4403         0.000       
     208       87.0682         0.000       
     207       85.9562         0.000       
     206       85.5924         0.000       
     205       85.0512         0.000       
     204       84.6444         0.000       
     203       84.2212         0.000       
     202       83.8574         0.000       
     201       83.4067         0.000       
     200       82.4131         0.000       
     199       82.3373         0.000       
     198       81.3923         0.000       
     197       80.7386         0.000       
     196       80.0369         0.000       
     195       79.3601         0.000       
     194       79.1853         0.000       
     193       78.3535         0.000       
     192       77.9785         0.000       
     191       76.9137         0.000       
     190       76.6642         0.000       
     189       74.6961         0.000       
     188       74.0173         0.000       
     187       73.5178         0.000       
     186       72.4710         0.000       
     185       71.4699         0.000       
     184       70.8692         0.000       
     183       70.7363         0.000       
     182       69.4580         0.000       
     181       69.1253         0.000       
     180       68.7048         0.000       
     179       68.6531         0.000       
     178       67.0902         0.000       
     177       65.8900         0.000       
     176       65.2979         0.000       
     175       64.4679         0.000       
     174       63.7471         0.000       
     173       62.7564         0.000       
     172       61.5602         0.000       
     171       61.3992         0.000       
     170       61.1021         0.000       
     169       60.2904         0.000       
     168       59.4323         0.000       
     167       58.8752         0.000       
     166       58.3647         0.000       
     165       57.4205         0.000       
     164       57.0303         0.000       
     163       56.6444         0.000       
     162       55.8121         0.000       
     161       55.1914         0.000       
     160       54.6405         0.000       
     159       53.1528         0.000       
     158       52.7234         0.000       
     157       52.3345         0.000       
     156       51.8436         0.000       
     155       51.1571         0.000       
     154       50.2100         0.000       
     153       49.6912         0.000       
     152       49.1913         0.000       
     151       48.4124         0.000       
     150       47.8431         0.000       
     149       47.7226         0.000       
     148       47.6181         0.000       
     147       46.1550         0.000       
     146       45.7399         0.000       
     145       45.2842         0.000       
     144       44.8574         0.000       
     143       44.4037         0.000       
     142       43.8046         0.000       
     141       43.1310         0.000       
     140       42.6842         0.000       
     139       42.3036         0.000       
     138       41.9177         0.000       
     137       41.8419         0.000       
     136       41.1933         0.000       
     135       40.8883         0.000       
     134       40.1406         0.000       
     133       39.7209         0.000       
     132       39.2104         0.000       
     131       39.1223         0.000       
     130       38.9951         0.000       
     129       38.3578         0.000       
     128       37.7643         0.000       
     127       37.4072         0.000       
     126       37.3150         0.000       
     125       36.9393         0.000       
     124       36.3245         0.000       
     123       36.0471         0.000       
     122       35.6587         0.000       
     121       35.2985         0.000       
     120       34.8552         0.000       
     119       34.3145         0.000       
     118       33.8369         0.000       
     117       33.3460         0.000       
     116       32.9451         0.000       
     115       32.4966         0.000       
     114       32.1339         0.000       
     113       31.7886         0.000       
     112       31.3401         0.000       
     111       30.5165         0.000       
     110       30.2544         0.000       
     109       29.6861         0.000       
     108       29.4047         0.000       
     107       28.7927         0.000       
     106       28.3030         0.000       
     105       27.5018         0.000       
     104       27.1896         0.000       
     103       26.7567         0.000       
     102       26.1356         0.000       
     101       25.6123         0.000       
     100       25.2094         0.000       
      99       24.5320         0.000       
      98       23.6682         0.000       
      97       23.3181         0.000       
      96       21.6244         0.000       
      95       21.4711         0.000       
      94       21.1319         0.000       
      93       20.2954         0.000       
      92       19.7243         0.000       
      91       19.3241         0.000       
      90       18.6350         0.000       
      89       17.8052         0.000       
      88       17.5274         0.000       
      87       17.3496         0.000       
      86       17.2358         0.000       
      85       16.8048         0.000       
      84       16.2813         0.000       
      83       16.0442         0.000       
      82       15.5802         0.000       
      81       15.3947         0.000       
      80       15.1829         0.000       
      79       15.0011         0.000       
      78       14.7513         0.000       
      77       14.3664         0.000       
      76       14.0628         0.000       
      75       13.7961         0.000       
      74       13.4591         0.000       
      73       13.1393         0.000       
      72       12.8064         0.000       
      71       12.3362         0.000       
      70       12.0556         0.000       
      69       11.7154         0.000       
      68       11.4770         0.000       
      67       11.0582         0.000       
      66       10.8505         0.000       
      65       10.5825         0.000       
      64       10.1919         0.000       
      63        9.7787         0.000       
      62        9.6486         0.000       
      61        9.3189         0.000       
      60        9.1648         0.000       
      59        8.5433         0.000       
      58        8.2419         0.000       
      57        8.1119         0.000       
      56        7.7339         0.000       
      55        7.7009         0.000       
      54        6.7600         0.000       
      53        6.3567         0.000       
      52        5.9599         0.000       
      51        5.8512         0.000       
      50        5.5117         0.000       
      49        5.3462         0.000       
      48        4.8882         0.000       
      47        4.5119         0.000       
      46        4.1952         0.000       
      45        4.0688         0.000       
      44        3.9652         0.000       
      43        3.3743         0.000       
      42        2.7608         0.000       
      41        1.7249         0.000 < LUMO
      40       -1.7714         2.000 < HOMO
      39       -1.8822         2.000       
      38       -2.1389         2.000       
      37       -2.3389         2.000       
      36       -2.4103         2.000       
      35       -2.5327         2.000       
      34       -3.0230         2.000       
      33       -3.5190         2.000       
      32       -4.2202         2.000       
      31       -4.6017         2.000       
      30       -5.2215         2.000       
      29       -5.6576         2.000       
      28       -5.9166         2.000       
      27       -6.1749         2.000       
      26       -6.6017         2.000       
      25       -7.0256         2.000       
      24       -7.3229         2.000       
      23       -8.1999         2.000       
      22       -9.0739         2.000       
      21      -11.0553         2.000       
      20      -12.8366         2.000       
      19      -14.1681         2.000       
      18      -14.5986         2.000       
      17      -16.1502         2.000       
      16      -17.6977         2.000       
      15      -18.7127         2.000       
      14      -20.9570         2.000       
      13     -184.7239         2.000       
      12     -184.7317         2.000       
      11     -184.8877         2.000       
      10     -245.7304         2.000       
       9     -266.1712         2.000       
       8     -266.3347         2.000       
       7     -266.7943         2.000       
       6     -267.2495         2.000       
       5     -268.7833         2.000       
       4     -376.8951         2.000       
       3     -377.4295         2.000       
       2     -653.5354         2.000       
       1    -2744.9797         2.000       

AMS application finished. Exiting.
NORMAL TERMINATION
     Total cpu time:     141.54
  Total system time:       0.47
 Total elapsed time:     142.45
NORMAL TERMINATION
