srun: Step created for StepId=662414.92

 *******************************************************************************
 *                                                                             *
 *  --------------------------------                                           *
 *   Amsterdam Modeling Suite (AMS)              2026.103                      *
 *  --------------------------------                                           *
 *                                               r260501 2026-05-01 873454b5   *
 *                                                                             *
 *                                                                             *
 *                              =================                              *
 *                              |               |                              *
 *                              |     A M S     |                              *
 *                              |               |                              *
 *                              =================                              *
 *                                                                             *
 *                                                                             *
 *   Online information and documentation:  https://www.scm.com/support/       *
 *   E-mail:  support@scm.com   info@scm.com                                   *
 *                                                                             *
 *   Scientific publications using AMS results must be properly referenced     *
 *   See the User Manuals (or the web site) for recommended citations          *
 *   The terms and conditions of the End User License Agreement apply to       *
 *   the use of AMS, https://www.scm.com/license-terms/                        *
 *                                                                             *
 **********************  x86_64_linux_intel / intelmpi  ************************
 
 Licensed to: Jong-June Jeon / University of Seoul 2026-06-02 13:44:15
 SCM User ID: u30731
  
 AMS 2026.103  RunTime: Jun03-2026 18:05:00  ShM Nodes: 1  Procs: 1

 AMS jobname: c1_fragA_ts
 AMS jobid  : 1434687753

 Start   directory: /gpfs/home1/yeseo1ee/projects/eda-asm-prediction/ADF_800/adf_outputs/batch_003/qmrxn20_e2_B_A_B_E_C_C/
 Results directory: /gpfs/home1/yeseo1ee/projects/eda-asm-prediction/ADF_800/adf_outputs/batch_003/qmrxn20_e2_B_A_B_E_C_C/c1_fragA_ts.results/
 Scratch directory: /tmp/amstmp_c1_fragA_ts_kid0.1434687753/

 RNG seed: 309295114 -494879929 1970900253 940708574 -429871900 -1436141840 225320999 -1651425846



                      ************************************************************************
                      *  ADF 2026.103  RunTime: Jun03-2026 18:05:00  ShM Nodes: 1  Procs: 1  *
                      ************************************************************************
  

       ****************************
       * SINGLE POINT CALCULATION *
       ****************************

--------
Geometry
--------
Formula: ClH
Atoms
  Index Symbol   x (angstrom)   y (angstrom)   z (angstrom)
      1     Cl    -2.49879502    -0.04854025     2.46315144
      2      H    -1.35556521     0.05178252     1.62613985

Total System Charge             -1.00000


----------------
ADF Engine Input
----------------
 
   Basis
     Type TZ2P
     Core None
   End
   XC
     GGA BLYP
     Dispersion GRIMME3 BJDAMP
   End
   Symmetry NOSYM
   NumericalQuality Normal
   Unrestricted No
   SCF
     Iterations 200
     Converge 1.0e-6
   End
   Save TAPE21
 

 Title: *** (NO TITLE) ***

 *** adf ***



 ===========================
 A T T A C H E D   F I L E S
 ===========================
  



 ===============================
 M O D E L   P A R A M E T E R S
 ===============================
  
 DENSITY FUNCTIONAL POTENTIAL (scf)
    LDA:                               Exchange only                           == Not Default ==
    Gradient Corrections:              Becke88 LYP                             == Not Default ==

 SPIN  (restricted / unrestr.)
    Molecule:                          Restricted                               
    Fragments:                         Restricted                               

 OTHER ASPECTS
    Relativistic Corrections:          scalar (ZORA,MAPA)                       

    Nuclear Charge Density Model:      Point Charge Nuclei                      
    Core Treatment:                    Frozen Orbital(s)                        

    Hyperfine or Zeeman Interaction:   ---                                      

 Settings for Grimme D3 dispersion correction

      damping                        BJ
      s6                          1.000
      s8                          2.700
      a1                          0.430
      a2                          4.236

 Other (technical) parameters

      alpha                      14.000
      version                         4
 
 WARNING: Atom coordinates do not satisfy full symmetry (probably due to orientation).


 Fragment File(s)
 ----------------
 Cl:
         file : /gpfs/home1/yeseo1ee/projects/eda-asm-prediction/ADF_800/adf_outputs/batch_003/qmrxn20_e2_B_A_B_E_C_C/c1_fragA_ts.results/t21.3FD35465.Cl
         jobid: 0
         title: Chlorine (TZ2P)
 H:
         file : /gpfs/home1/yeseo1ee/projects/eda-asm-prediction/ADF_800/adf_outputs/batch_003/qmrxn20_e2_B_A_B_E_C_C/c1_fragA_ts.results/t21.6F35CCAB.H
         jobid: 0
         title: Hydrogen (TZ2P)



 ===============
 G E O M E T R Y  ***  Linear Molecule  ***
 ===============
  

 ATOMS
 =====                            X Y Z                    CHARGE
                                (Angstrom)             Nucl     +Core       At.Mass
                       --------------------------    ----------------       -------
    1  Cl             -2.4988   -0.0485    2.4632     17.00     17.00       34.9689
    2  H              -1.3556    0.0518    1.6261      1.00      1.00        1.0078


 FRAGMENTS
 =========                                     Atoms in this Fragment     Cart. coord.s (Angstrom)
                                               -------------------------------------------------------
    1  Cl                                                1  Cl          -2.4988   -0.0485    2.4632
    2  H                                                 2  H           -1.3556    0.0518    1.6261


 Interatomic Distance Matrix (Angstrom)
 --------------------------------------

   1)     0.000
   2)     1.420   0.000



 =====================================
 S Y M M E T R Y ,   E L E C T R O N S
 =====================================
  
 Symmetry: NOSYM

 Irreducible Representations, including subspecies
 -------------------------------------------------
 A


 Configuration of Valence Electrons
 ==================================
 ( determined in the SCF procedure )

 Total:   19

 ===============
 W A R N I N G :
 ===============

 The number of electrons does not correspond to doubly occupied orbitals,
 i.e. there would be one orbital with 0.5-alpha and 0.5-beta electrons.

 Normally, this corresponds to a doublet that should be treated within
 the UNRESTRICTED framework. For example, for a doublet:

   CHARGE  -1.0 1.0
   Unrestricted

 See the online manual (http://www.scm.com) for more information on
 how to use the UNRESTRICTED framework.

 If you are definitely certain that for this job the restricted open-shell
 is appropriate, you can overcome this warning by placing on input:
   ALLOW ROKS

 In case of doubt, contact support@scm.com with this problem.

 Net Charge: -1 (Nuclei minus Electrons)

 Aufbau principle for MO occupations will be applied through SCF cycle no.     100
 Thereafter, the program will assign electrons to MOs that are spatially
 similar to the occupied MOs in a "reference" cycle ("KeepOrbitals").
 The reference cycle is always the PREVIOUS cycle: it will evolve with
 the SCF procedure.
 ***************************************************************************************************



                                      ****************************************
                                      *  B U I L D : (Fragments, Functions)  *
                                      ****************************************
  



 =======
 S F O s  ***  (Symmetrized Fragment Orbitals)  ***
 =======
  
 SFOs are linear combinations of (valence) Fragment Orbitals (FOs), such that the SFOs transform as the
 irreducible representations of the (molecular) symmetry group. Each SFO is therefore characterized by
 an irrep of the molecule and by a few (or only one) generating FOs.
 The SFOs constitute a symmetry-adapted basis for the Fock matrix. The MO eigenvector coefficients in
 this basis provide a direct interpretation of the MOs in terms of Frontier Orbital Theory.

 The SFOs are combined with auxiliary Core Functions (CFs) to ensure orthogonalization on the (frozen)
 Core Orbitals (COs). The Core-orthogonalized SFOs (CSFOs) constitute the true Fock basis.

 The FOs, and hence also the (C)SFOs are combinations of the elementary basis functions (BAS). The basis
 functions that participate in the description of the SFOs depend on the irrep. The indices of the
 involved functions are printed below for each irrep.
 (The complete list of primitive basis functions is printed in another section)

 Total nr. of (C)SFOs (summation over all irreps) :    45

 NOTE: a (C)SFO that is defined as a combination of more than one FO is usually NOT normalized.



                                       === A ===
 Nr. of SFOs :   45
 Cartesian basis functions that participate in this irrep (total number =    50) :
      1     2     3     4    11    12    13     5     8    14
     17    20     6     9    15    18    21     7    10    16
     19    22    23    24    25    26    27    28    29    30
     31    32    33    34    35    36    37    38    39    40
     41    42    43    44    45    46    47    48    49    50

    SFO  (index         Fragment          Generating    Expansion in Fragment Orbitals
  indx  incl.CFs)   Occup   Orb.Energy   FragmentType  Coeff.   Orbital     on Fragment
 --------------------------------------------------------------------------------------
     1       1      2.000    -101.116 au  Cl            1.00      1 S               1
                        (   -2751.516 eV)
     2       2      2.000      -9.276 au  Cl            1.00      2 S               1
                        (    -252.419 eV)
     3       3      2.000      -0.754 au  Cl            1.00      3 S               1
                        (     -20.523 eV)
     4       4       --         0.194 au  Cl            1.00      4 S               1
                        (       5.292 eV)
     5       5       --         1.998 au  Cl            1.00      5 S               1
                        (      54.377 eV)
     6       6       --        12.618 au  Cl            1.00      6 S               1
                        (     343.355 eV)
     7       7       --       205.328 au  Cl            1.00      7 S               1
                        (    5587.258 eV)
     8       8      2.000      -7.038 au  Cl            1.00      1 P:x             1
                        (    -191.503 eV)
     9       9      1.667      -0.310 au  Cl            1.00      2 P:x             1
                        (      -8.439 eV)
    10      10       --         0.226 au  Cl            1.00      3 P:x             1
                        (       6.147 eV)
    11      11       --         2.102 au  Cl            1.00      4 P:x             1
                        (      57.194 eV)
    12      12       --        18.665 au  Cl            1.00      5 P:x             1
                        (     507.904 eV)
    13      13      2.000      -7.038 au  Cl            1.00      1 P:y             1
                        (    -191.503 eV)
    14      14      1.667      -0.310 au  Cl            1.00      2 P:y             1
                        (      -8.439 eV)
    15      15       --         0.226 au  Cl            1.00      3 P:y             1
                        (       6.147 eV)
    16      16       --         2.102 au  Cl            1.00      4 P:y             1
                        (      57.194 eV)
    17      17       --        18.665 au  Cl            1.00      5 P:y             1
                        (     507.904 eV)
    18      18      2.000      -7.038 au  Cl            1.00      1 P:z             1
                        (    -191.503 eV)
    19      19      1.667      -0.310 au  Cl            1.00      2 P:z             1
                        (      -8.439 eV)
    20      20       --         0.226 au  Cl            1.00      3 P:z             1
                        (       6.147 eV)
    21      21       --         2.102 au  Cl            1.00      4 P:z             1
                        (      57.194 eV)
    22      22       --        18.665 au  Cl            1.00      5 P:z             1
                        (     507.904 eV)
    23      23       --         0.388 au  Cl            1.00      1 D:z2            1
                        (      10.568 eV)
    24      24       --         0.388 au  Cl            1.00      1 D:x2-y2         1
                        (      10.568 eV)
    25      25       --         0.388 au  Cl            1.00      1 D:xy            1
                        (      10.568 eV)
    26      26       --         0.388 au  Cl            1.00      1 D:xz            1
                        (      10.568 eV)
    27      27       --         0.388 au  Cl            1.00      1 D:yz            1
                        (      10.568 eV)
    28      28       --         1.191 au  Cl            1.00      1 F:z3            1
                        (      32.399 eV)
    29      29       --         1.191 au  Cl            1.00      1 F:z             1
                        (      32.399 eV)
    30      30       --         1.191 au  Cl            1.00      1 F:xyz           1
                        (      32.399 eV)
    31      31       --         1.191 au  Cl            1.00      1 F:z2x           1
                        (      32.399 eV)
    32      32       --         1.191 au  Cl            1.00      1 F:z2y           1
                        (      32.399 eV)
    33      33       --         1.191 au  Cl            1.00      1 F:x             1
                        (      32.399 eV)
    34      34       --         1.191 au  Cl            1.00      1 F:y             1
                        (      32.399 eV)
    35      35      1.000      -0.240 au  H             1.00      1 S               2
                        (      -6.532 eV)
    36      36       --         0.088 au  H             1.00      2 S               2
                        (       2.394 eV)
    37      37       --         1.502 au  H             1.00      3 S               2
                        (      40.869 eV)
    38      38       --         0.406 au  H             1.00      1 P:x             2
                        (      11.051 eV)
    39      39       --         0.406 au  H             1.00      1 P:y             2
                        (      11.051 eV)
    40      40       --         0.406 au  H             1.00      1 P:z             2
                        (      11.051 eV)
    41      41       --         2.569 au  H             1.00      1 D:z2            2
                        (      69.917 eV)
    42      42       --         2.569 au  H             1.00      1 D:x2-y2         2
                        (      69.917 eV)
    43      43       --         2.569 au  H             1.00      1 D:xy            2
                        (      69.917 eV)
    44      44       --         2.569 au  H             1.00      1 D:xz            2
                        (      69.917 eV)
    45      45       --         2.569 au  H             1.00      1 D:yz            2
                        (      69.917 eV)



 ================================
 (Slater-type)  F U N C T I O N S  ***  (Basis and Fit)  ***
 ================================
  

 Atom Type    1  (Cl)
 ==============

 Valence Basis Sets:  14
 -----------------------
   1 S   20.300000
   1 S   15.250000
   2 S    6.250000
   2 S    4.450000
   2 P    8.850000
   2 P    5.050000
   3 S    3.450000
   3 S    2.300000
   3 S    1.600000
   3 P    3.350000
   3 P    2.050000
   3 P    1.200000
   3 D    2.000000
   4 F    2.000000

 Atom Type    2  (H)
 ==============

 Valence Basis Sets:   5
 -----------------------
   1 S    0.690000
   1 S    0.920000
   1 S    1.580000
   2 P    1.250000
   3 D    2.500000


 BAS: List of all Elementary Cartesian Basis Functions
 =====================================================

 The numbering in the list below (to the right of the function characteristics) is referred
 to in print-outs of MO eigenvectors and Mulliken populations in the BAS representation
 (as contrasted to the SFO representation).

 Notes:
 1. The functions are characterized by a polynomial prefactor (powers of x,y,z and r) and
    an exponential decay factor alpha.
 2. Since the basis sets are specific for an atom TYPE, the individual functions occur on
    all atoms of that type.
 3. The word 'Core' in the left margin signals that it is a Core Function (CF) : not a
    degree of freedom in the valence set, but only used to ensure orthogonalization of
    the other valence basis functions on the frozen Core Orbitals.


 (power of) X  Y  Z  R     Alpha  on Atom
            ==========     =====     ==========

 Cl                                   1
                                  ---------------------------------------------------------------------------
            0  0  0  0    20.300      1
            0  0  0  0    15.250      2
            0  0  0  1     6.250      3
            0  0  0  1     4.450      4
            1  0  0  0     8.850      5
            0  1  0  0     8.850      6
            0  0  1  0     8.850      7
            1  0  0  0     5.050      8
            0  1  0  0     5.050      9
            0  0  1  0     5.050     10
            0  0  0  2     3.450     11
            0  0  0  2     2.300     12
            0  0  0  2     1.600     13
            1  0  0  1     3.350     14
            0  1  0  1     3.350     15
            0  0  1  1     3.350     16
            1  0  0  1     2.050     17
            0  1  0  1     2.050     18
            0  0  1  1     2.050     19
            1  0  0  1     1.200     20
            0  1  0  1     1.200     21
            0  0  1  1     1.200     22
            2  0  0  0     2.000     23
            1  1  0  0     2.000     24
            1  0  1  0     2.000     25
            0  2  0  0     2.000     26
            0  1  1  0     2.000     27
            0  0  2  0     2.000     28
            3  0  0  0     2.000     29
            2  1  0  0     2.000     30
            2  0  1  0     2.000     31
            1  2  0  0     2.000     32
            1  1  1  0     2.000     33
            1  0  2  0     2.000     34
            0  3  0  0     2.000     35
            0  2  1  0     2.000     36
            0  1  2  0     2.000     37
            0  0  3  0     2.000     38

 H                                    2
                                  ---------------------------------------------------------------------------
            0  0  0  0     0.690     39
            0  0  0  0     0.920     40
            0  0  0  0     1.580     41
            1  0  0  0     1.250     42
            0  1  0  0     1.250     43
            0  0  1  0     1.250     44
            2  0  0  0     2.500     45
            1  1  0  0     2.500     46
            1  0  1  0     2.500     47
            0  2  0  0     2.500     48
            0  1  1  0     2.500     49
            0  0  2  0     2.500     50

 Total number of charge fitting functions (nprimf)       156
 Total number of Cartesian basis functions (naos)         50
 Total number of Cartesian core functions  (ncos)          0

 ***************************************************************************************************



                                              ***********************
                                              *  T E C H N I C A L  *
                                              ***********************
  



 =============================================================
 P A R A L L E L I Z A T I O N  and  V E C T O R I Z A T I O N
 =============================================================
  
 Nr of parallel processes:                                1
 Maximum vector length in NumInt loops:                 128



 =====================
 S C F   U P D A T E S
 =====================
  
 Max. nr. of cycles:                               200
 Convergence criterion:                              0.0000010000
   secondary criterion:                              0.0010000000

 Mix parameter (when DIIS does not apply):           0.2000000000
 Mixed ADIIS+SDIIS will be used                  
    Max number of expansion vectors:                10
    Pure ADIIS when Max([F,P]) is above              0.1000000000
    Pure SDIIS when Max([F,P]) is below              0.0010000000
 Automatic ElectronSmearing (in case of problematic SCF convergence) disabled



 =================
 P R E C I S I O N  ***  (General: NumInt, NeglectFunctionTails, ...)  ***
 =================
  

 NumInt:           Target precision:                 4.0000000000
 -------           Initial precision:                4.0000000000
                   Min. precision (optimization):    4.0000000000

 Neglect Functions:          Basis functions:        0.1000000000E-05
 ------------------          Fit functions:          0.1000000000E-05



 ===========================
 L I N E A R   S C A L I N G
 ===========================
  

 Cut-off radii density fit:                        0.1000000000E-07
 Overlap cut-off criterion AO matrix elements:     0.1000000000E-05
 Cut-offs for Coulomb potential and fitted density:0.1000000000E-07
 Cut-off criterion for Coulomb multipole terms:    0.1000000000E-07
 Progressive Convergence parameter:                 0.000000000    
 ***************************************************************************************************



                                            ***************************
                                            *  C O M P U T A T I O N  *
                                            ***************************
  

 Number of elements of the density matrix on this node (used, total):      1275      1275



 ===========================================
 Numerical Integration : Fuzzy Cells (Becke)
 ===========================================
  
 Becke grid quality: NORMAL         
  
 Lebedev angular grid order:             min:  11 max:  23
 Nr. of radial points:                   min:  46 max:  67

 Total nr. of points:      15046
 Nr. of blocks:              118
 Block length:               128
 Nr. of dummy points:         58


 Test of Precision of the Numerical Integration Grid
 ===================================================

 Integral of the Total Core Density:                   0.00000000000000



 ========================
 Density Fitting (zlmFit)
 ========================
  
 ZlmFit Fit Quality: NORMAL         
  
 Max L-expansion:                        min:   6 max:   7
 Nr. of radial interpolation points:     min:  39 max:  60



 =====
 S C F  ***  ScaSCF  ***
 =====
  
 Initial density matrix is calculated as sum of fragments

 CYCLE    1
 SCF Error: norm([F,P])=      1.212892521234, max([F,P])=      0.871830046824
 orbitals (Q,E):
 ---------------
 A :1...20           ( 2.00  -101.1397)  ( 2.00    -9.2919)  ( 2.00    -7.0537)  ( 2.00    -7.0518)
                     ( 2.00    -7.0517)  ( 2.00    -0.7972)  ( 2.00    -0.4363)  ( 2.00    -0.3261)
                     ( 2.00    -0.3261)  ( 1.00    -0.0851)  ( 0.00     0.0544)  ( 0.00     0.1921)
                     ( 0.00     0.2137)  ( 0.00     0.2137)  ( 0.00     0.2691)  ( 0.00     0.2692)
                     ( 0.00     0.3245)  ( 0.00     0.3758)  ( 0.00     0.3758)  ( 0.00     0.5400)

 CYCLE    2
  SDIIS (wt  0.000):  0.0829  0.9171
 A-DIIS (wt  1.000):  0.6929  0.3071
  DIIS coefficients:  0.6929  0.3071
 SCF Error: norm([F,P])=      0.319849992292, max([F,P])=      0.132257686473
 orbitals (Q,E):
 ---------------
 A :1...11           ( 2.00  -100.9632)  ( 2.00    -9.1279)  ( 2.00    -6.8893)  ( 2.00    -6.8861)
                     ( 2.00    -6.8861)  ( 2.00    -0.6636)  ( 2.00    -0.3108)  ( 2.00    -0.2048)
                     ( 2.00    -0.2048)  ( 1.00     0.0130)  ( 0.00     0.1403)

 CYCLE    3
  SDIIS (wt  0.000):  0.0057 -0.2213  1.2157
 A-DIIS (wt  1.000):  0.5922  0.0000  0.4078
  DIIS coefficients:  0.5922  0.0000  0.4078
 SCF Error: norm([F,P])=      0.084751424719, max([F,P])=      0.039329490590
 orbitals (Q,E):
 ---------------
 A :1...11           ( 2.00  -100.9896)  ( 2.00    -9.1434)  ( 2.00    -6.9063)  ( 2.00    -6.9024)
                     ( 2.00    -6.9023)  ( 2.00    -0.6604)  ( 2.00    -0.3044)  ( 2.00    -0.1978)
                     ( 2.00    -0.1978)  ( 1.00     0.0241)  ( 0.00     0.1514)

 CYCLE    4
  SDIIS (wt  0.385): -0.7489  1.7489
 A-DIIS (wt  0.615):  0.0000  1.0000
  DIIS coefficients: -0.2886  1.2886
 SCF Error: norm([F,P])=      0.139829699640, max([F,P])=      0.061846870305
 orbitals (Q,E):
 ---------------
 A :1...11           ( 2.00  -100.7585)  ( 2.00    -8.9222)  ( 2.00    -6.6860)  ( 2.00    -6.6792)
                     ( 2.00    -6.6791)  ( 2.00    -0.4650)  ( 2.00    -0.1189)  ( 2.00    -0.0155)
                     ( 2.00    -0.0155)  ( 1.00     0.1614)  ( 0.00     0.2994)

 CYCLE    5
  SDIIS (wt  0.000): -0.1308 -0.6505  1.2433  0.5381
 A-DIIS (wt  1.000):  0.0000  0.5292 -0.0000  0.4708
  DIIS coefficients:  0.0000  0.5292 -0.0000  0.4708
 SCF Error: norm([F,P])=      0.165208747811, max([F,P])=      0.064620304153
 orbitals (Q,E):
 ---------------
 A :1...11           ( 2.00  -100.8640)  ( 2.00    -9.0075)  ( 2.00    -6.7733)  ( 2.00    -6.7664)
                     ( 2.00    -6.7663)  ( 2.00    -0.5126)  ( 2.00    -0.1574)  ( 2.00    -0.0538)
                     ( 2.00    -0.0538)  ( 1.00     0.1459)  ( 0.00     0.2767)

 CYCLE    6
  SDIIS (wt  0.877):  0.0495 -0.1103  0.3175  0.3999  0.3434
 A-DIIS (wt  0.123):  0.0000  0.0000  0.0000  0.0000  1.0000
  DIIS coefficients:  0.0434 -0.0967  0.2783  0.3505  0.4245
 SCF Error: norm([F,P])=      0.052191748932, max([F,P])=      0.013225516704
 orbitals (Q,E):
 ---------------
 A :1...11           ( 2.00  -100.8296)  ( 2.00    -8.9850)  ( 2.00    -6.7497)  ( 2.00    -6.7428)
                     ( 2.00    -6.7428)  ( 2.00    -0.5062)  ( 2.00    -0.1556)  ( 2.00    -0.0487)
                     ( 2.00    -0.0487)  ( 1.00     0.1450)  ( 0.00     0.2753)

 CYCLE    7
  SDIIS (wt  0.956):  0.0771  0.2609 -0.3867 -0.0713  0.2890  0.8309
 A-DIIS (wt  0.044):  0.0000  0.0000  0.0000  0.0000  0.0502  0.9498
  DIIS coefficients:  0.0737  0.2494 -0.3696 -0.0681  0.2785  0.8362
 SCF Error: norm([F,P])=      0.014156383095, max([F,P])=      0.005375530732
 orbitals (Q,E):
 ---------------
 A :1...11           ( 2.00  -100.8376)  ( 2.00    -8.9914)  ( 2.00    -6.7563)  ( 2.00    -6.7493)
                     ( 2.00    -6.7492)  ( 2.00    -0.5102)  ( 2.00    -0.1590)  ( 2.00    -0.0523)
                     ( 2.00    -0.0522)  ( 1.00     0.1436)  ( 0.00     0.2733)

 CYCLE    8
  SDIIS (wt  1.000):  0.0085  0.0244 -0.0347 -0.0197  0.0403  0.3311  0.6500
  DIIS coefficients:  0.0085  0.0244 -0.0347 -0.0197  0.0403  0.3311  0.6500
 SCF Error: norm([F,P])=      0.001944772746, max([F,P])=      0.000697282991
 orbitals (Q,E):
 ---------------
 A :1...11           ( 2.00  -100.8372)  ( 2.00    -8.9912)  ( 2.00    -6.7560)  ( 2.00    -6.7490)
                     ( 2.00    -6.7490)  ( 2.00    -0.5101)  ( 2.00    -0.1589)  ( 2.00    -0.0522)
                     ( 2.00    -0.0522)  ( 1.00     0.1435)  ( 0.00     0.2733)

 CYCLE    9
  SDIIS (wt  1.000): -0.0013 -0.0073  0.0106 -0.0005 -0.0056  0.0287  0.0719  0.9036
  DIIS coefficients: -0.0013 -0.0073  0.0106 -0.0005 -0.0056  0.0287  0.0719  0.9036
 SCF Error: norm([F,P])=      0.000164744320, max([F,P])=      0.000055757635
 orbitals (Q,E):
 ---------------
 A :1...11           ( 2.00  -100.8373)  ( 2.00    -8.9912)  ( 2.00    -6.7561)  ( 2.00    -6.7491)
                     ( 2.00    -6.7490)  ( 2.00    -0.5102)  ( 2.00    -0.1589)  ( 2.00    -0.0522)
                     ( 2.00    -0.0522)  ( 1.00     0.1435)  ( 0.00     0.2732)

 CYCLE   10
  SDIIS (wt  1.000): -0.0000 -0.0004  0.0005 -0.0002 -0.0005  0.0021  0.0096  0.1562  0.8329
  DIIS coefficients: -0.0000 -0.0004  0.0005 -0.0002 -0.0005  0.0021  0.0096  0.1562  0.8329
 SCF Error: norm([F,P])=      0.000023108122, max([F,P])=      0.000009567369
 orbitals (Q,E):
 ---------------
 A :1...11           ( 2.00  -100.8373)  ( 2.00    -8.9912)  ( 2.00    -6.7561)  ( 2.00    -6.7491)
                     ( 2.00    -6.7490)  ( 2.00    -0.5102)  ( 2.00    -0.1589)  ( 2.00    -0.0522)
                     ( 2.00    -0.0522)  ( 1.00     0.1435)  ( 0.00     0.2732)

 CYCLE   11
  SDIIS (wt  1.000):  0.0000 -0.0000  0.0000 -0.0000 -0.0000  0.0000  0.0001  0.0081  0.1044  0.8874
  DIIS coefficients:  0.0000 -0.0000  0.0000 -0.0000 -0.0000  0.0000  0.0001  0.0081  0.1044  0.8874
 SCF Error: norm([F,P])=      0.000002083825, max([F,P])=      0.000000679863
 orbitals (Q,E):
 ---------------
 A :1...11           ( 2.00  -100.8373)  ( 2.00    -8.9912)  ( 2.00    -6.7561)  ( 2.00    -6.7491)
                     ( 2.00    -6.7490)  ( 2.00    -0.5102)  ( 2.00    -0.1589)  ( 2.00    -0.0522)
                     ( 2.00    -0.0522)  ( 1.00     0.1435)  ( 0.00     0.2732)

 SCF CONVERGED

 CYCLE   12
 ***************************************************************************************************



                                                *******************
                                                *  R E S U L T S  *
                                                *******************
  
 *** Using FIT density in Focky
  SDIIS (wt  1.000): -0.0000  0.0000 -0.0000 -0.0000  0.0000  0.0000  0.0019  0.0243  0.2200  0.7538
  DIIS coefficients: -0.0000  0.0000 -0.0000 -0.0000  0.0000  0.0000  0.0019  0.0243  0.2200  0.7538
 SCF Error: norm([F,P])=      0.000000124101, max([F,P])=      0.000000056397

 Scaled ZORA Orbital Energies, per Irrep and Spin:
 =================================================
                        Occup              E (au)              E (eV)       Diff (eV) with prev. cycle
                        -----      --------------------        ------       --------------------------
 A
               1        2.000     -0.10083725732159E+03     -2743.921               3.12E-07
               2        2.000     -0.89911964934249E+01      -244.663               2.15E-07
               3        2.000     -0.67560652366485E+01      -183.842               2.33E-07
               4        2.000     -0.67490875394512E+01      -183.652               2.43E-07
               5        2.000     -0.67490211592848E+01      -183.650               2.43E-07
               6        2.000     -0.51018400766024E+00       -13.883               6.79E-08
               7        2.000     -0.15892997774555E+00        -4.325               6.65E-08
               8        2.000     -0.52230507203777E-01        -1.421               8.96E-08
               9        2.000     -0.52210852978971E-01        -1.421               8.96E-08
              10        1.000      0.14349128293064E+00         3.905               4.05E-08
              11        0.000      0.27323229580955E+00         7.435
              12        0.000      0.40197732477227E+00        10.938
              13        0.000      0.43366650090856E+00        11.801
              14        0.000      0.43367115460847E+00        11.801
              15        0.000      0.53725091773663E+00        14.619
              16        0.000      0.53726508385407E+00        14.620
              17        0.000      0.55572922030397E+00        15.122
              18        0.000      0.65476237744035E+00        17.817
              19        0.000      0.65476959793865E+00        17.817
              20        0.000      0.79947278883260E+00        21.755


 Partially Occupied:
              10 A                 0.14349128293064E+00
  
 HOMO :        9 A                -0.52210852978971E-01
 LUMO :       11 A                 0.27323229580955E+00
  


 All Electron Calculation, thus no Orbital Energies of the Core Orbitals are calculated

 Integrated fractional orbital density (NFOD):         1.000


 Fit test: (difference of exact and fit density, squared integrated, result summed over spins)
         Sum-of-Fragments:                             0.00000000057134
         Orthogonalized Fragments:                     0.00004821771354
         SCF:                                          0.00005223688704



 ==========================
 Electron Density at Nuclei
 ==========================
  
 The electron density is calculated at points on a small sphere around the center of a nucleus.
 The printed electron density is the average electron density on these points.
 The radius of the sphere is the printed approximate finite nuclear radius.
 Note: ZORA-4 density is used, which includes small component density

         Atom        Nuclear Radius (Angstrom)             Electron Density (a.u.)
         ----        -------------------------             -----------------------
     1)   Cl                0.0000426624                             3312.45782
     2)   H                 0.0000181514                                0.39395



 =======================================
 M U L L I K E N   P O P U L A T I O N S
 =======================================
  
 The survey below gives for each atom:
 a) the total charge (Z minus electrons)
 b) the net spin polarization (nr of electrons spin-A minus spin-B)
 c) for each spin the atomic electron valence density (integrated) per L-value.

 Atom              Charge    Spin density          S         P         D         F
 ----              ------    ------------       ------    ------    ------    ------
 1 Cl             -0.2031                       5.7853   11.3774    0.0355    0.0049
 2 H              -0.7969                       1.7187    0.0729    0.0053    0.0000

 Populations of individual BAS functions
 ----------------------------------------
 1 Cl           0.5875  1.3680  1.7532  0.2035  0.7370  0.7408  0.7388  1.2563  1.2520  1.2543
                0.6736  1.0021  0.1974  0.2857  0.3245  0.3038  0.9191  1.0310  0.9715  0.4183
                0.6280  0.5163  0.0144  0.0005  0.0236 -0.0039  0.0003  0.0005  0.0069  0.0047
                0.0110 -0.0082  0.0002  0.0028 -0.0060 -0.0053  0.0015 -0.0025
 2 H            2.0846 -0.7622  0.3963  0.0290  0.0194  0.0245  0.0037  0.0007  0.0022 -0.0023
                0.0004  0.0006

 Gross Charges per Atom (Z minus electrons)
 ==========================================
            -0.2031   -0.7969
 Net Total: -1.00000000


 Atom-Atom Population Matrix (off-diagonal elements not doubled)
 ===============================================================

     1 :    18.1529
     2 :    -0.9499    2.7468



 =================================================
 H I R S H F E L D   C H A R G E   A N A L Y S I S
 =================================================
  
 For each fragment: the (numerical) integral of rho(scf) * rho(fragment)/rho(sum-of-fragments)
 (nuclear charges are included, electrons are counted negative)

 The fragments and their ordering are defined in the early G E O M E T R Y output section.
 If you use single-atom fragments, this usually implies that all atoms of the same
 chemical type are grouped together. This may not be the order in which you listed them
 in the input file!

  Fragment                       Charge
 ------------------------------------------
    1  Cl                       -0.5938
    2  H                        -0.4062

 Sum of these charges =         -0.99999937
 (accuracy NumInt/Tails)



 =============================
 V O R O N O I   C H A R G E S
 =============================
  
 For each atom: the (numerical) integral of the total electronic charge density in its Voronoi cell,
 i.e. the region of space that is closer to that atom than to any other atom.
 (cf. Wigner-Seitz cells in crystals)

 Within the Voronoi cell the subintegrals over the atomic sphere and the remaining part are evaluated
 separately to give the numbers of electrons (negative charge) in these regions.
 The net total charge in the cell (including the nuclear charge) is also given.

 Values are provided for
    a) the Initial (sum-of-fragments) density
    b) the Orthogonalized-Fragments density
    c) the SCF density
    d) the Voronoi Deformation Density (VDD): the difference SCF-Initial for the complete atomic cell

  Atom                Initial                    OrthFrag                   SCF
             Sphere RestCell NetTotal   Sphere RestCell NetTotal   Sphere RestCell NetTotal      VDD
 -------     ------------------------   ------------------------   ------------------------    -----
    1 Cl    -10.174   -6.181    0.645  -10.200   -6.291    0.509  -10.175   -6.662    0.163   -0.482
    2 H      -0.070   -1.575   -0.645   -0.082   -1.428   -0.509   -0.081   -2.082   -1.163   -0.518
 ---------------------------------------------------------------------------------------------------
 Total NetCharge:               0.000                      0.000                     -1.000   -1.000
 (accuracy NumInt/Tails)

 Remark: the 'NetTotal' Voronoi charges often do not match the Mulliken and/or Hirshfeld charges very
 well. This is caused by the fact that chemically different atoms are not treated in accordance with
 their relative sizes. (Voronoi cells are defined by boundary planes halfway between the atoms.)
 However, the CHANGES in charge, comparing 'Initial' to 'SCF' for instance, do give a fair indication
 of the flow of charge caused by the relaxation from sum-of-fragments to self-consistency.

 Warning: the absolute accuracy of the VDD charges obtained using the Fuzzy Cells (Becke) integration
 scheme is much poorer than the one obtained with an 'equivalent' Voronoi integration grid. 



 =================================================================
 M U L T I P O L E   D E R I V E D   C H A R G E   A N A L Y S I S
 =================================================================

 This charge analysis uses the atomic multipoles (obtained from the fitted density) up to some level X,
 and reconstructs these multipoles exactly (up to level X) by distributing charges over all atoms.
 This is achieved by using Lagrange multipliers and a weight function to keep the multipoles local.

 Dummy atoms can be included (by setting INCDUM in MDC-block to 1) to obtain a fractional charge.
 This is generally useful and necessary only for small symmetrical molecules, when there are not
 enough degrees of freedom to reconstruct the multipoles.

 Since the atomic multipoles are reconstructed up to level X,
 the molecular multipoles are represented also up to level X.
 The recommended level is to reconstruct up to quadrupole : -> MDC-q charges.

 See: M. Swart, P.Th. van Duijnen, J.G. Snijders, J.Comput.Chem., (2001), p. 79-88.

 ------------------------------------------------------------- 
 Atomic electronic multipole moments from SCF equations (a.u.)
 ------------------------------------------------------------- 

   atom        charge        dip-x     dip-y     dip-z      quad-xx   quad-xy   quad-xz   quad-yy   quad-yz   quad-zz
 --------------------------------------------------------------------------------------------------------------------
    1 Cl    -0.308123     0.692553  0.060729 -0.507024     0.979876  0.117954 -0.985071 -1.022892 -0.086531  0.043016
    2 H     -0.691877    -0.567338 -0.049754  0.415318    -0.113524 -0.013562  0.114153  0.118531  0.009968 -0.005007

 --------------------------------------- 
 Multipole derived atomic charges (a.u.)
 --------------------------------------- 

 The MDC-m charges are just the Monopole terms in the multipole expansion, while for the MDC-d charges
 also the Dipoles are reconstructed. The usually preferred charges are the MDC-q charges.
 These reconstruct the Monopoles, Dipoles and Quadrupoles (both atomic AND molecular).

        Atom    Level:     MDC-m        MDC-d        MDC-q
 ---------------------------------------------------------
     1     Cl          -0.308123    -0.366089    -0.450133
     2     H           -0.691877    -0.633911    -0.549867

 ------------------------------------------------ 
 Average absolute deviations in atomic multipoles
 ------------------------------------------------ 

 Stated here are the average differences between the atomic multipoles
 and the reconstructed atomic multipoles (from the distributed charges).
 If these values are not zero, this means there are not enough degrees of freedom,
 to be able to reconstruct the atomic multipoles. (This usually happens only
 for small and/or highly symmetric molecules). If this is the case, one could add
 dummy atoms as extra point charges (and setting INCDUM in MDC-block to 1).

 Level:                                 MDC-d        MDC-q
 ---------------------------------------------------------
 Charge   (a.u.)                       0.0000       0.0000
 Dipole   (Debye)                      0.0001       0.7374
 Quad.    (a.u.)                       0.4512       0.1348

 --------------------------------------- 
 Represented molecular multipole moments
 --------------------------------------- 

 Given here are the Molecular multipole moments from the atomic charges, and from the Fit Density.
 Note that the atomic charges represent the latter, NOT the ones from the Exact density.

            Q (a.u.)             Dipole moment (Debye)                                          Quadrupole moment (a.u.)
                                 x         y         z              xx        xy        xz        yy        yz        zz
------------------------------------------------------------------------------------------------------------------------
MDC-m        -1.0000        8.2030   -0.1002   -9.0494         -4.8013    0.0600   18.3281   12.3007   -0.1147   -7.4994
MDC-d        -1.0000        8.5213   -0.0723   -9.2825         -5.3592    0.0005   19.5548   13.1111   -0.0515   -7.7519
MDC-q        -1.0000        8.9828   -0.0318   -9.6204         -6.1681   -0.0857   21.3333   14.2861    0.0403   -8.1179
 
Fit.Dens.    -1.0000        8.5213   -0.0724   -9.2825         -6.4746   -0.2532   21.6730   14.2762    0.1341   -7.8016



 =============
 Dipole Moment  ***  (Debye)  ***
 =============
  
 Vector   :         8.52722662     -0.07190225     -9.28666022
 Magnitude:        12.60796660

 This molecular dipole moment is calculated with analytic integration
 ************************************************************************************
 Since the molecule is NOT NEUTRAL, the dipole moment depends on the choice of origin
 ************************************************************************************



 =========================================
 Quadrupole Moment (Buckingham convention)  ***  (a.u.)  ***
 =========================================
  
      quad-xx        quad-xy        quad-xz        quad-yy        quad-yz        quad-zz
     -6.48596561    -0.20195146    21.26065822    14.29135200     0.09717863    -7.80538639

 This molecular quadrupole moment is calculated with analytic integration



 ===========================
 B O N D I N G   E N E R G Y  ***  (decomposition)  ***
 ===========================
  
*** IMPORTANT NOTE ***

The bond energy is computed as an energy difference between molecule and
fragments. In particular when the fragments are single atoms, they are usually
computed as SPHERICALLY SYMMETRIC and SPIN-RESTRICTED. Obviously, this usually
does NOT represent the true atomic groundstate.

To obtain the 'real' bond energy, (atomic) correction terms must be applied
for the true (multiplet) fragment ground state. See ref: E.J.Baerends,
V.Branchadell, M.Sodupe, Chem.Phys.Lett.265 (1997) 481

General theoretical background on the bond energy decomposition scheme used
here (Morokuma-Ziegler) can be found in the review paper:
F.M. Bickelhaupt and E.J. Baerends,
"Kohn-Sham Density Functional Theory: Predicting and Understanding Chemistry"
In: Rev. Comput. Chem.; Lipkowitz, K. B. and Boyd, D. B., Eds.;
Wiley-VCH: New York, 2000, Vol. 15, 1-86.

Symbols used in the Bickelhaupt-Baerends (BB) paper are given below to make
the direct connection to that paper, where detailed explanations can be found
on the meaning of the various terms.


                                                   hartree              eV         kcal/mol           kJ/mol
                                      --------------------     -----------       ----------      -----------

Pauli Repulsion
  Kinetic (Delta T^0):                   1.497886391056017         40.7596           939.94          3932.70
  Delta V^Pauli Coulomb:                -0.935273084072737        -25.4501          -586.89         -2455.56
  Delta V^Pauli LDA-XC:                 -0.156551954415880         -4.2600           -98.24          -411.03
  Delta V^Pauli GGA-Exchange:            0.013769434813904          0.3747             8.64            36.15
  Delta V^Pauli GGA-Correlation:        -0.012753532992864         -0.3470            -8.00           -33.48
                                      --------------------     -----------       ----------      -----------
  Total Pauli Repulsion:                 0.407077254388441         11.0771           255.44          1068.78
 (Total Pauli Repulsion =
  Delta E^Pauli in BB paper)

Steric Interaction
  Pauli Repulsion (Delta E^Pauli):       0.407077254388441         11.0771           255.44          1068.78
  Electrostatic Interaction:            -0.104036250511287         -2.8310           -65.28          -273.15
 (Electrostatic Interaction =
  Delta V_elstat in the BB paper)
                                      --------------------     -----------       ----------      -----------
  Total Steric Interaction:              0.303041003877153          8.2462           190.16           795.63
 (Total Steric Interaction =
  Delta E^0 in the BB paper)

Orbital Interactions
  A:                                    -0.467196718772175        -12.7131          -293.17         -1226.62
                                      --------------------     -----------       ----------      -----------
  Total Orbital Interactions:           -0.467196718772175        -12.7131          -293.17         -1226.62

Alternative Decomposition Orb.Int.
  Kinetic:                              -1.169006938776927        -31.8103          -733.56         -3069.23
  Coulomb:                               0.854848589402443         23.2616           536.43          2244.40
  XC:                                   -0.153038369397692         -4.1644           -96.03          -401.80
                                      --------------------     -----------       ----------      -----------
  Total Orbital Interactions:           -0.467196718772175        -12.7131          -293.17         -1226.62

  Residu (E=Steric+OrbInt+Res):         -0.000032254102786         -0.0009            -0.02            -0.08
  Dispersion Energy:                    -0.000695873815718         -0.0189            -0.44            -1.83

Total Bonding Energy:                   -0.164883842813526         -4.4867          -103.47          -432.90


Summary of Bonding Energy (energy terms are taken from the energy decomposition above)
======================================================================================

  Electrostatic Energy:                 -0.104036250511287         -2.8310           -65.28          -273.15
  Kinetic Energy:                        0.328879452279091          8.9493           206.37           863.47
  Coulomb (Steric+OrbInt) Energy:       -0.080456748773079         -2.1893           -50.49          -211.24
  XC Energy:                            -0.308574421992532         -8.3967          -193.63          -810.16
  Dispersion Energy:                    -0.000695873815718         -0.0189            -0.44            -1.83
                                      --------------------     -----------       ----------      -----------
  Total Bonding Energy:                 -0.164883842813526         -4.4867          -103.47          -432.90


Correction terms (incorporated in energies above; only for test purposes):

1. Indication of fit-quality: 1st-order fit-correction used in the energy (hartree):   0.0004520055
2. Electrostatic (Fit correction):   0.0000000000

Scaled ZORA energy correction, not included in bonding energy (hartree):           -0.0000001354
 NOTE: This scaled ZORA energy correction should only be used to compare two calculations
 in which the only difference in the calculation is the electron configuration.
 Then the difference in energy of this term should be added to the difference in energy of
 the two electron configurations.
 This term should not be used otherwise.
 In practice it is useful only for core excitation energy calculations.



 =========================================
 F R A G M E N T   E N E R G Y   T E R M S  ***  (summed over all fragments)  ***
 =========================================
  

The energy terms below are (parts of) the Total Energy of the fragments from which the molecule
 is built.

Exchange and Correlation
  Exchange LDA:                        -25.657396651225710       -698.1733        -16100.26        -67363.49
  Exchange GGA:                         -2.190315499695100        -59.6015         -1374.44         -5750.67
  Correlation LDA:                       0.000000000000000          0.0000             0.00             0.00
  Correlation GGA:                      -0.711140744977898        -19.3511          -446.25         -1867.10
                                      --------------------     -----------       ----------      -----------
  Total XC:                            -28.558852895898706       -777.1259        -17920.95        -74981.26



 =======================================================
 S F O   P O P U L A T I O N S ,   M O   A N A L Y S I S
 =======================================================
  
 A Mulliken population analysis is performed on (input-)selected MOs. All populations refer to SFOs.
 BAS populations may have been printed directly after the SCF part.


                                       === A ===


 SFO contributions (%) per orbital
 (multiplication by the orbital occupation yields the SFO Gross Populations)

 Orb.:        1      2      3      4      5      6      7      8      9     10     11     12     13     14
 occup:     2.00   2.00   2.00   2.00   2.00   2.00   2.00   2.00   2.00   1.00   0.00   0.00   0.00   0.00
 CF+SFO     ----   ----   ----   ----   ----   ----   ----   ----   ----   ----   ----   ----   ----   ----
 ------
      1:  100.00   0.00   0.00   0.00   0.00   0.00  -0.00  -0.00   0.00  -0.00  -0.00  -0.00   0.00   0.00
      2:   -0.00 100.02   0.00   0.00   0.00   0.00   0.00   0.00  -0.00   0.01   0.00   0.00  -0.00   0.00
      3:    0.00   0.00  -0.00  -0.00  -0.00  91.44   4.45   0.00   0.00   2.72   0.30   0.47   0.00   0.00
      4:   -0.00   0.00   0.00   0.00   0.00  -0.01  -0.57   0.00   0.00 -15.53  -0.24   8.25   0.00   0.00
      8:    0.00   0.00  64.83  18.17  16.99   0.00   0.00   0.00   0.00  -0.00   0.00   0.00  -0.00  -0.00
      9:   -0.00   0.00  -0.00   0.00   0.00   0.31  43.54  13.51  21.26  10.98  10.23  -0.63   0.02   0.10
     10:    0.00   0.00   0.00  -0.00  -0.00  -0.02  -0.20   0.04   0.06  -6.36   0.63  58.71   6.76  28.04
     13:    0.00   0.00   0.50  38.60  60.90   0.00   0.00   0.00   0.00  -0.00   0.00   0.00  -0.00  -0.00
     14:   -0.00   0.00  -0.00   0.00   0.00   0.00   0.34  50.70  47.51   0.08   0.08  -0.00   0.24   0.09
     15:    0.00   0.00   0.00  -0.00  -0.00  -0.00  -0.00   0.13   0.12  -0.05   0.00   0.45  71.23  27.10
     18:    0.00   0.00  34.66  43.23  22.11   0.00   0.00   0.00   0.00  -0.00   0.00   0.00  -0.00  -0.00
     19:   -0.00   0.00  -0.00   0.00   0.00   0.16  23.35  34.49  29.93   5.88   5.48  -0.34   0.07   0.15
     20:    0.00   0.00   0.00  -0.00  -0.00  -0.01  -0.11   0.09   0.08  -3.41   0.34  31.47  20.83  43.68
     24:   -0.00   0.00  -0.00   0.00   0.00   0.04   0.29   0.00   0.00   0.43   3.72  -0.03   0.00   0.00
     26:   -0.00   0.00  -0.00   0.00   0.00   0.08   0.63   0.00   0.00   0.94   8.10  -0.07   0.00   0.00
     35:   -0.00  -0.00   0.00  -0.00   0.00   7.18  26.31   0.00   0.00  68.98   9.85  -5.24  -0.00  -0.00
     36:   -0.00   0.00  -0.00   0.00   0.00  -0.43   1.86   0.00   0.00  36.09  62.40   1.54   0.00   0.00
     37:   -0.00  -0.00   0.00  -0.00   0.00  -0.23  -0.25  -0.00  -0.00  -2.10  -0.59  -1.50  -0.00   0.00
     38:    0.00  -0.01   0.00  -0.00  -0.00   0.90   0.10   0.13   0.21   0.25   0.40   4.45   0.05   0.20
     40:    0.00  -0.01   0.00  -0.00  -0.00   0.48   0.05   0.34   0.29   0.14   0.22   2.39   0.15   0.32


 Summation over all MOs, multiplied by occupation: Total SFO Gross Populations in this Irrep
 ===========================================================================================

     2.00    2.00    1.95   -0.17    0.01    0.00    0.00    2.00    1.68   -0.07    0.00    0.00
     2.00    1.97    0.00    0.00    0.00    2.00    1.82   -0.03    0.00    0.00    0.00    0.01
     0.00    0.02    0.00    0.00    0.00    0.00    0.00    0.00    0.00    0.00    1.36    0.39
    -0.03    0.03    0.02    0.02    0.00    0.00    0.00    0.00    0.00



 List of selected MOs, ordered by energy, with the most significant SFO gross populations
 ========================================================================================

 Each percentage contribution in the table below corres ponds to the indicated SFO.
 In general, a SFO may be a linear combination of several Fragment Orbitals on the same,
 or on symmetry-related Fragments. Only the first 'member' of such a combination is
 specified here. A full definition of all SFOs is given in an earlier part of the output.
 The numbering of the SFOs in this table does NOT include the Core Orbitals, and starts
 from one for each symmetry representation, as in the SFO definition list earlier.

       E(eV)  Occ       MO           %     SFO (first member)   E(eV)  Occ   Fragment
 -------------------------------------------------------------------------------------

     -13.883  2.00     6 A         91.44%     3 S             -20.523  2.00     1 Cl
                                    7.18%     1 S              -6.532  1.00     2 H
      -4.325  2.00     7 A         43.54%     2 P:x            -8.439  1.67     1 Cl
                                   26.31%     1 S              -6.532  1.00     2 H
                                   23.35%     2 P:z            -8.439  1.67     1 Cl
                                    4.45%     3 S             -20.523  2.00     1 Cl
                                    1.86%     2 S               2.394  0.00     2 H
      -1.421  2.00     8 A         50.70%     2 P:y            -8.439  1.67     1 Cl
                                   34.49%     2 P:z            -8.439  1.67     1 Cl
                                   13.51%     2 P:x            -8.439  1.67     1 Cl
      -1.421  2.00     9 A         47.51%     2 P:y            -8.439  1.67     1 Cl
                                   29.93%     2 P:z            -8.439  1.67     1 Cl
                                   21.26%     2 P:x            -8.439  1.67     1 Cl
       3.905  1.00    10 A         68.98%     1 S              -6.532  1.00     2 H
                                   36.09%     2 S               2.394  0.00     2 H
                                  -15.53%     4 S               5.292  0.00     1 Cl
                                   10.98%     2 P:x            -8.439  1.67     1 Cl
                                   -6.36%     3 P:x             6.147  0.00     1 Cl
                                    5.88%     2 P:z            -8.439  1.67     1 Cl
                                   -3.41%     3 P:z             6.147  0.00     1 Cl
                                    2.72%     3 S             -20.523  2.00     1 Cl
                                   -2.10%     3 S              40.869  0.00     2 H
       7.435  0.00    11 A         62.40%     2 S               2.394  0.00     2 H
                                   10.23%     2 P:x            -8.439  1.67     1 Cl
                                    9.85%     1 S              -6.532  1.00     2 H
                                    8.10%     1 D:xz           10.568  0.00     1 Cl
                                    5.48%     2 P:z            -8.439  1.67     1 Cl
                                    3.72%     1 D:x2-y2        10.568  0.00     1 Cl
      10.938  0.00    12 A         58.71%     3 P:x             6.147  0.00     1 Cl
                                   31.47%     3 P:z             6.147  0.00     1 Cl
                                    8.25%     4 S               5.292  0.00     1 Cl
                                   -5.24%     1 S              -6.532  1.00     2 H
                                    4.45%     1 P:x            11.051  0.00     2 H
                                    2.39%     1 P:z            11.051  0.00     2 H
                                    1.54%     2 S               2.394  0.00     2 H
                                   -1.50%     3 S              40.869  0.00     2 H
      11.801  0.00    13 A         71.23%     3 P:y             6.147  0.00     1 Cl
                                   20.83%     3 P:z             6.147  0.00     1 Cl
                                    6.76%     3 P:x             6.147  0.00     1 Cl
      11.801  0.00    14 A         43.68%     3 P:z             6.147  0.00     1 Cl
                                   28.04%     3 P:x             6.147  0.00     1 Cl
                                   27.10%     3 P:y             6.147  0.00     1 Cl



 =======================================================================
 Electrostatic potential at the Nuclei due to electrons and other nuclei
 =======================================================================
  
         Atom                  Potential
         ----                  ---------
     1)   Cl                 65.10852007
     2)   H                   1.23839869
 Mulliken charges used for AMS results%charges...


    =====================
     CALCULATION RESULTS
    =====================

Energy (hartree)            -0.16488384


--------------
Atomic charges
--------------
  Index   Atom    Charge
      1     Cl   -0.2031
      2      H   -0.7969


Dipole moment vector    (Debye):     8.52722662   -0.07190225   -9.28666022
              magnitude (Debye):    12.60796660


-----------------------
Molecular orbitals info
-----------------------
n orbitals:               45
n spin:                    1

Note: only printing virtual orbitals with
      energy smaller than HOMO + 100. eV

Note: fractional orbital occupations. HOMO and LUMO labels are not well defined!

HOMO (eV):              -1.4207
LUMO (eV):               3.9046
HOMO-LUMO gap (eV):      5.3253

   Index   Energy (eV)    Occupation
      37       83.5422         0.000       
      36       83.5370         0.000       
      35       78.0903         0.000       
      34       65.5527         0.000       
      33       63.9673         0.000       
      32       63.9659         0.000       
      31       62.8863         0.000       
      30       44.2064         0.000       
      29       44.2061         0.000       
      28       44.0190         0.000       
      27       39.2798         0.000       
      26       39.2797         0.000       
      25       38.5166         0.000       
      24       38.5164         0.000       
      23       35.2743         0.000       
      22       26.1097         0.000       
      21       26.1096         0.000       
      20       21.7548         0.000       
      19       17.8172         0.000       
      18       17.8170         0.000       
      17       15.1222         0.000       
      16       14.6197         0.000       
      15       14.6193         0.000       
      14       11.8008         0.000       
      13       11.8007         0.000       
      12       10.9384         0.000       
      11        7.4350         0.000       
      10        3.9046         1.000 < LUMO
       9       -1.4207         2.000 < HOMO
       8       -1.4213         2.000       
       7       -4.3247         2.000       
       6      -13.8828         2.000       
       5     -183.6502         2.000       
       4     -183.6520         2.000       
       3     -183.8419         2.000       
       2     -244.6629         2.000       
       1    -2743.9214         2.000       

AMS application finished. Exiting.
NORMAL TERMINATION
     Total cpu time:       2.83
  Total system time:       0.14
 Total elapsed time:       3.00
NORMAL TERMINATION with warnings
