srun: Job 662414 step creation temporarily disabled, retrying (Requested nodes are busy)
srun: Job 662414 step creation still disabled, retrying (Requested nodes are busy)
srun: Job 662414 step creation still disabled, retrying (Requested nodes are busy)
srun: Job 662414 step creation still disabled, retrying (Requested nodes are busy)
srun: Job 662414 step creation still disabled, retrying (Requested nodes are busy)
srun: Job 662414 step creation still disabled, retrying (Requested nodes are busy)
srun: Job 662414 step creation still disabled, retrying (Requested nodes are busy)
srun: Step created for StepId=662414.94

 *******************************************************************************
 *                                                                             *
 *  --------------------------------                                           *
 *   Amsterdam Modeling Suite (AMS)              2026.103                      *
 *  --------------------------------                                           *
 *                                               r260501 2026-05-01 873454b5   *
 *                                                                             *
 *                                                                             *
 *                              =================                              *
 *                              |               |                              *
 *                              |     A M S     |                              *
 *                              |               |                              *
 *                              =================                              *
 *                                                                             *
 *                                                                             *
 *   Online information and documentation:  https://www.scm.com/support/       *
 *   E-mail:  support@scm.com   info@scm.com                                   *
 *                                                                             *
 *   Scientific publications using AMS results must be properly referenced     *
 *   See the User Manuals (or the web site) for recommended citations          *
 *   The terms and conditions of the End User License Agreement apply to       *
 *   the use of AMS, https://www.scm.com/license-terms/                        *
 *                                                                             *
 **********************  x86_64_linux_intel / intelmpi  ************************
 
 Licensed to: Jong-June Jeon / University of Seoul 2026-06-02 13:44:15
 SCM User ID: u30731
  
 AMS 2026.103  RunTime: Jun03-2026 18:20:45  ShM Nodes: 1  Procs: 1

 AMS jobname: c2_fragB_ts
 AMS jobid  : 1200097265

 Start   directory: /gpfs/home1/yeseo1ee/projects/eda-asm-prediction/ADF_800/adf_outputs/batch_003/qmrxn20_e2_B_A_B_E_C_C/
 Results directory: /gpfs/home1/yeseo1ee/projects/eda-asm-prediction/ADF_800/adf_outputs/batch_003/qmrxn20_e2_B_A_B_E_C_C/c2_fragB_ts.results/
 Scratch directory: /tmp/amstmp_c2_fragB_ts_kid0.1200097265/

 RNG seed: -1631982179 -506220480 -1047961704 990498935 563086585 270586661 1572256427 -1960925668



                      ************************************************************************
                      *  ADF 2026.103  RunTime: Jun03-2026 18:20:45  ShM Nodes: 1  Procs: 1  *
                      ************************************************************************
  

       ****************************
       * SINGLE POINT CALCULATION *
       ****************************

--------
Geometry
--------
Formula: C2H3BrN3O4
Atoms
  Index Symbol   x (angstrom)   y (angstrom)   z (angstrom)
      1      C    -0.11345812     0.01196965    -0.35406489
      2      C     0.13756980     0.01266751     1.02828533
      3     Br     1.69002254    -0.44108085    -1.64970754
      4      H    -0.39065139     0.96452924    -0.78104663
      5      N    -1.03064423    -1.03918832    -0.83413797
      6      O    -1.88001545    -0.68698096    -1.65278404
      7      O    -0.91638663    -2.18183709    -0.38831707
      8      N     0.73373550    -1.07908204     1.69399604
      9      H     0.45863141    -1.93085139     1.22285710
     10      H     0.43931781    -1.10461508     2.66272228
     11      N     0.57641516     1.29459682     1.55191849
     12      O     1.06637748     1.28335951     2.68712099
     13      O     0.35771634     2.32368072     0.90172661

Total System Charge              0.00000


----------------
ADF Engine Input
----------------
 
   Basis
     Type TZ2P
     Core None
   End
   XC
     GGA BLYP
     Dispersion GRIMME3 BJDAMP
   End
   Symmetry NOSYM
   NumericalQuality Normal
   Unrestricted No
   SCF
     Iterations 200
     Converge 1.0e-6
   End
   Save TAPE21
 

 Title: *** (NO TITLE) ***

 *** adf ***



 ===========================
 A T T A C H E D   F I L E S
 ===========================
  



 ===============================
 M O D E L   P A R A M E T E R S
 ===============================
  
 DENSITY FUNCTIONAL POTENTIAL (scf)
    LDA:                               Exchange only                           == Not Default ==
    Gradient Corrections:              Becke88 LYP                             == Not Default ==

 SPIN  (restricted / unrestr.)
    Molecule:                          Restricted                               
    Fragments:                         Restricted                               

 OTHER ASPECTS
    Relativistic Corrections:          scalar (ZORA,MAPA)                       

    Nuclear Charge Density Model:      Point Charge Nuclei                      
    Core Treatment:                    Frozen Orbital(s)                        

    Hyperfine or Zeeman Interaction:   ---                                      

 Settings for Grimme D3 dispersion correction

      damping                        BJ
      s6                          1.000
      s8                          2.700
      a1                          0.430
      a2                          4.236

 Other (technical) parameters

      alpha                      14.000
      version                         4
 


 Fragment File(s)
 ----------------
 C:
         file : /gpfs/home1/yeseo1ee/projects/eda-asm-prediction/ADF_800/adf_outputs/batch_003/qmrxn20_e2_B_A_B_E_C_C/c2_fragB_ts.results/t21.50BA88D5.C
         jobid: 0
         title: Carbon (TZ2P)
 Br:
         file : /gpfs/home1/yeseo1ee/projects/eda-asm-prediction/ADF_800/adf_outputs/batch_003/qmrxn20_e2_B_A_B_E_C_C/c2_fragB_ts.results/t21.42F58B50.Br
         jobid: 0
         title: Bromine (TZ2P)
 H:
         file : /gpfs/home1/yeseo1ee/projects/eda-asm-prediction/ADF_800/adf_outputs/batch_003/qmrxn20_e2_B_A_B_E_C_C/c2_fragB_ts.results/t21.6F35CCAB.H
         jobid: 0
         title: Hydrogen (TZ2P)
 N:
         file : /gpfs/home1/yeseo1ee/projects/eda-asm-prediction/ADF_800/adf_outputs/batch_003/qmrxn20_e2_B_A_B_E_C_C/c2_fragB_ts.results/t21.44EAA48D.N
         jobid: 0
         title: Nitrogen (TZ2P)
 O:
         file : /gpfs/home1/yeseo1ee/projects/eda-asm-prediction/ADF_800/adf_outputs/batch_003/qmrxn20_e2_B_A_B_E_C_C/c2_fragB_ts.results/t21.6E90ABAE.O
         jobid: 0
         title: Oxygen (TZ2P)



 ===============
 G E O M E T R Y  ***  3D  Molecule  ***
 ===============
  

 ATOMS
 =====                            X Y Z                    CHARGE
                                (Angstrom)             Nucl     +Core       At.Mass
                       --------------------------    ----------------       -------
    1  C              -0.1135    0.0120   -0.3541      6.00      6.00       12.0000
    2  C               0.1376    0.0127    1.0283      6.00      6.00       12.0000
    3  Br              1.6900   -0.4411   -1.6497     35.00     35.00       78.9183
    4  H              -0.3907    0.9645   -0.7810      1.00      1.00        1.0078
    5  N              -1.0306   -1.0392   -0.8341      7.00      7.00       14.0031
    6  O              -1.8800   -0.6870   -1.6528      8.00      8.00       15.9949
    7  O              -0.9164   -2.1818   -0.3883      8.00      8.00       15.9949
    8  N               0.7337   -1.0791    1.6940      7.00      7.00       14.0031
    9  H               0.4586   -1.9309    1.2229      1.00      1.00        1.0078
   10  H               0.4393   -1.1046    2.6627      1.00      1.00        1.0078
   11  N               0.5764    1.2946    1.5519      7.00      7.00       14.0031
   12  O               1.0664    1.2834    2.6871      8.00      8.00       15.9949
   13  O               0.3577    2.3237    0.9017      8.00      8.00       15.9949


 FRAGMENTS
 =========                                     Atoms in this Fragment     Cart. coord.s (Angstrom)
                                               -------------------------------------------------------
    1  C                                                 1  C           -0.1135    0.0120   -0.3541
    2  C                                                 2  C            0.1376    0.0127    1.0283
    3  Br                                                3  Br           1.6900   -0.4411   -1.6497
    4  H                                                 4  H           -0.3907    0.9645   -0.7810
    5  H                                                 9  H            0.4586   -1.9309    1.2229
    6  H                                                10  H            0.4393   -1.1046    2.6627
    7  N                                                 5  N           -1.0306   -1.0392   -0.8341
    8  N                                                 8  N            0.7337   -1.0791    1.6940
    9  N                                                11  N            0.5764    1.2946    1.5519
   10  O                                                 6  O           -1.8800   -0.6870   -1.6528
   11  O                                                 7  O           -0.9164   -2.1818   -0.3883
   12  O                                                12  O            1.0664    1.2834    2.6871
   13  O                                                13  O            0.3577    2.3237    0.9017


 Interatomic Distance Matrix (Angstrom)
 --------------------------------------

   1)     0.000
   2)     1.405   0.000
   3)     2.266   3.129   0.000
   4)     1.080   2.112   2.657   0.000
   5)     1.475   2.437   2.903   2.104   0.000
   6)     2.301   3.428   3.578   2.389   1.231   0.000
   7)     2.336   2.817   3.379   3.214   1.232   2.182   0.000
   8)     2.470   1.411   3.536   3.401   3.083   4.265   2.877   0.000
   9)     2.567   1.979   3.462   3.622   2.692   3.910   2.133   1.012   0.000
  10)     3.264   2.003   4.539   4.102   3.794   4.917   3.508   1.013   1.660   0.000
  11)     2.399   1.453   3.808   2.547   3.704   4.498   4.252   2.383   3.244   2.647
          0.000
  12)     3.501   2.287   4.709   3.775   4.711   5.603   5.040   2.584   3.584   2.469
          1.236   0.000
  13)     2.673   2.325   3.991   2.289   4.031   4.538   4.857   3.514   4.268   3.855
          1.237   2.185   0.000

 Min. Distance =    1.0115
 Max. Distance =    5.6034



 =====================================
 S Y M M E T R Y ,   E L E C T R O N S
 =====================================
  
 Symmetry: NOSYM

 Irreducible Representations, including subspecies
 -------------------------------------------------
 A


 Configuration of Valence Electrons
 ==================================
 ( determined in the SCF procedure )

 Total:   103

 ===============
 W A R N I N G :
 ===============

 The number of electrons does not correspond to doubly occupied orbitals,
 i.e. there would be one orbital with 0.5-alpha and 0.5-beta electrons.

 Normally, this corresponds to a doublet that should be treated within
 the UNRESTRICTED framework. For example, for a doublet:

   CHARGE   0.0 1.0
   Unrestricted

 See the online manual (http://www.scm.com) for more information on
 how to use the UNRESTRICTED framework.

 If you are definitely certain that for this job the restricted open-shell
 is appropriate, you can overcome this warning by placing on input:
   ALLOW ROKS

 In case of doubt, contact support@scm.com with this problem.

 Net Charge: 0 (Nuclei minus Electrons)

 Aufbau principle for MO occupations will be applied through SCF cycle no.     100
 Thereafter, the program will assign electrons to MOs that are spatially
 similar to the occupied MOs in a "reference" cycle ("KeepOrbitals").
 The reference cycle is always the PREVIOUS cycle: it will evolve with
 the SCF procedure.
 ***************************************************************************************************



                                      ****************************************
                                      *  B U I L D : (Fragments, Functions)  *
                                      ****************************************
  



 =======
 S F O s  ***  (Symmetrized Fragment Orbitals)  ***
 =======
  
 SFOs are linear combinations of (valence) Fragment Orbitals (FOs), such that the SFOs transform as the
 irreducible representations of the (molecular) symmetry group. Each SFO is therefore characterized by
 an irrep of the molecule and by a few (or only one) generating FOs.
 The SFOs constitute a symmetry-adapted basis for the Fock matrix. The MO eigenvector coefficients in
 this basis provide a direct interpretation of the MOs in terms of Frontier Orbital Theory.

 The SFOs are combined with auxiliary Core Functions (CFs) to ensure orthogonalization on the (frozen)
 Core Orbitals (COs). The Core-orthogonalized SFOs (CSFOs) constitute the true Fock basis.

 The FOs, and hence also the (C)SFOs are combinations of the elementary basis functions (BAS). The basis
 functions that participate in the description of the SFOs depend on the irrep. The indices of the
 involved functions are printed below for each irrep.
 (The complete list of primitive basis functions is printed in another section)

 Total nr. of (C)SFOs (summation over all irreps) :   323

 NOTE: a (C)SFO that is defined as a combination of more than one FO is usually NOT normalized.



                                       === A ===
 Nr. of SFOs :  323
 Cartesian basis functions that participate in this irrep (total number =   369) :
      1     2     3     4     5     6     9    12     7    10
     13     8    11    14    15    16    17    18    19    20
     21    22    23    24    25    26    27    28    29    30
     31    32    33    34    35    36    39    42    37    40
     43    38    41    44    45    46    47    48    49    50
     51    52    53    54    55    56    57    58    59    60
     61    62    63    70    71    96    97    98    64    67
     72    75    99   102   105    65    68    73    76   100
    103   106    66    69    74    77   101   104   107    78
     84    90   108    79    85    91   109    80    86    92
    110    81    87    93   111    82    88    94   112    83
     89    95   113   114   115   116   117   118   119   120
    121   122   123   124   125   126   127   128   129   130
    131   132   133   134   135   136   137   138   139   140
    141   142   143   144   145   146   147   148   149   150
    151   152   153   154   155   156   157   158   159   160
    161   162   163   164   165   168   171   166   169   172
    167   170   173   174   175   176   177   178   179   180
    181   182   183   184   185   186   187   188   189   190
    191   192   193   194   195   198   201   196   199   202
    197   200   203   204   205   206   207   208   209   210
    211   212   213   214   215   216   217   218   219   220
    221   222   223   224   225   228   231   226   229   232
    227   230   233   234   235   236   237   238   239   240
    241   242   243   244   245   246   247   248   249   250
    251   252   253   254   255   258   261   256   259   262
    257   260   263   264   265   266   267   268   269   270
    271   272   273   274   275   276   277   278   279   280
    281   282   283   284   285   288   291   286   289   292
    287   290   293   294   295   296   297   298   299   300
    301   302   303   304   305   306   307   308   309   310
    311   312   313   314   315   318   321   316   319   322
    317   320   323   324   325   326   327   328   329   330
    331   332   333   334   335   336   337   338   339   340
    341   342   343   344   345   348   351   346   349   352
    347   350   353   354   355   356   357   358   359   360
    361   362   363   364   365   366   367   368   369

    SFO  (index         Fragment          Generating    Expansion in Fragment Orbitals
  indx  incl.CFs)   Occup   Orb.Energy   FragmentType  Coeff.   Orbital     on Fragment
 --------------------------------------------------------------------------------------
     1       1      2.000     -10.066 au  C             1.00      1 S               1
                        (    -273.921 eV)
     2       2      2.000      -0.501 au  C             1.00      2 S               1
                        (     -13.620 eV)
     3       3       --         0.373 au  C             1.00      3 S               1
                        (      10.158 eV)
     4       4       --         5.405 au  C             1.00      4 S               1
                        (     147.073 eV)
     5       5       --        49.848 au  C             1.00      5 S               1
                        (    1356.422 eV)
     6       6      0.667      -0.193 au  C             1.00      1 P:x             1
                        (      -5.239 eV)
     7       7       --         0.169 au  C             1.00      2 P:x             1
                        (       4.589 eV)
     8       8       --         2.013 au  C             1.00      3 P:x             1
                        (      54.789 eV)
     9       9      0.667      -0.193 au  C             1.00      1 P:y             1
                        (      -5.239 eV)
    10      10       --         0.169 au  C             1.00      2 P:y             1
                        (       4.589 eV)
    11      11       --         2.013 au  C             1.00      3 P:y             1
                        (      54.789 eV)
    12      12      0.667      -0.193 au  C             1.00      1 P:z             1
                        (      -5.239 eV)
    13      13       --         0.169 au  C             1.00      2 P:z             1
                        (       4.589 eV)
    14      14       --         2.013 au  C             1.00      3 P:z             1
                        (      54.789 eV)
    15      15       --         1.243 au  C             1.00      1 D:z2            1
                        (      33.824 eV)
    16      16       --         1.243 au  C             1.00      1 D:x2-y2         1
                        (      33.824 eV)
    17      17       --         1.243 au  C             1.00      1 D:xy            1
                        (      33.824 eV)
    18      18       --         1.243 au  C             1.00      1 D:xz            1
                        (      33.824 eV)
    19      19       --         1.243 au  C             1.00      1 D:yz            1
                        (      33.824 eV)
    20      20       --         4.016 au  C             1.00      1 F:z3            1
                        (     109.271 eV)
    21      21       --         4.016 au  C             1.00      1 F:z             1
                        (     109.271 eV)
    22      22       --         4.016 au  C             1.00      1 F:xyz           1
                        (     109.271 eV)
    23      23       --         4.016 au  C             1.00      1 F:z2x           1
                        (     109.271 eV)
    24      24       --         4.016 au  C             1.00      1 F:z2y           1
                        (     109.271 eV)
    25      25       --         4.016 au  C             1.00      1 F:x             1
                        (     109.271 eV)
    26      26       --         4.016 au  C             1.00      1 F:y             1
                        (     109.271 eV)
    27      27      2.000     -10.066 au  C             1.00      1 S               2
                        (    -273.921 eV)
    28      28      2.000      -0.501 au  C             1.00      2 S               2
                        (     -13.620 eV)
    29      29       --         0.373 au  C             1.00      3 S               2
                        (      10.158 eV)
    30      30       --         5.405 au  C             1.00      4 S               2
                        (     147.073 eV)
    31      31       --        49.848 au  C             1.00      5 S               2
                        (    1356.422 eV)
    32      32      0.667      -0.193 au  C             1.00      1 P:x             2
                        (      -5.239 eV)
    33      33       --         0.169 au  C             1.00      2 P:x             2
                        (       4.589 eV)
    34      34       --         2.013 au  C             1.00      3 P:x             2
                        (      54.789 eV)
    35      35      0.667      -0.193 au  C             1.00      1 P:y             2
                        (      -5.239 eV)
    36      36       --         0.169 au  C             1.00      2 P:y             2
                        (       4.589 eV)
    37      37       --         2.013 au  C             1.00      3 P:y             2
                        (      54.789 eV)
    38      38      0.667      -0.193 au  C             1.00      1 P:z             2
                        (      -5.239 eV)
    39      39       --         0.169 au  C             1.00      2 P:z             2
                        (       4.589 eV)
    40      40       --         2.013 au  C             1.00      3 P:z             2
                        (      54.789 eV)
    41      41       --         1.243 au  C             1.00      1 D:z2            2
                        (      33.824 eV)
    42      42       --         1.243 au  C             1.00      1 D:x2-y2         2
                        (      33.824 eV)
    43      43       --         1.243 au  C             1.00      1 D:xy            2
                        (      33.824 eV)
    44      44       --         1.243 au  C             1.00      1 D:xz            2
                        (      33.824 eV)
    45      45       --         1.243 au  C             1.00      1 D:yz            2
                        (      33.824 eV)
    46      46       --         4.016 au  C             1.00      1 F:z3            2
                        (     109.271 eV)
    47      47       --         4.016 au  C             1.00      1 F:z             2
                        (     109.271 eV)
    48      48       --         4.016 au  C             1.00      1 F:xyz           2
                        (     109.271 eV)
    49      49       --         4.016 au  C             1.00      1 F:z2x           2
                        (     109.271 eV)
    50      50       --         4.016 au  C             1.00      1 F:z2y           2
                        (     109.271 eV)
    51      51       --         4.016 au  C             1.00      1 F:x             2
                        (     109.271 eV)
    52      52       --         4.016 au  C             1.00      1 F:y             2
                        (     109.271 eV)
    53      53      2.000    -488.642 au  Br            1.00      1 S               3
                        (  -13296.634 eV)
    54      54      2.000     -63.585 au  Br            1.00      2 S               3
                        (   -1730.246 eV)
    55      55      2.000      -8.709 au  Br            1.00      3 S               3
                        (    -236.987 eV)
    56      56      2.000      -0.733 au  Br            1.00      4 S               3
                        (     -19.946 eV)
    57      57       --         0.224 au  Br            1.00      5 S               3
                        (       6.099 eV)
    58      58       --         2.414 au  Br            1.00      6 S               3
                        (      65.683 eV)
    59      59       --        13.546 au  Br            1.00      7 S               3
                        (     368.609 eV)
    60      60       --       615.209 au  Br            1.00      8 S               3
                        (   16740.684 eV)
    61      61      2.000     -56.116 au  Br            1.00      1 P:x             3
                        (   -1526.987 eV)
    62      62      2.000      -6.365 au  Br            1.00      2 P:x             3
                        (    -173.205 eV)
    63      63      1.667      -0.284 au  Br            1.00      3 P:x             3
                        (      -7.716 eV)
    64      64       --         0.137 au  Br            1.00      4 P:x             3
                        (       3.720 eV)
    65      65       --         1.208 au  Br            1.00      5 P:x             3
                        (      32.874 eV)
    66      66       --         8.734 au  Br            1.00      6 P:x             3
                        (     237.661 eV)
    67      67       --        95.627 au  Br            1.00      7 P:x             3
                        (    2602.141 eV)
    68      68      2.000     -56.116 au  Br            1.00      1 P:y             3
                        (   -1526.987 eV)
    69      69      2.000      -6.365 au  Br            1.00      2 P:y             3
                        (    -173.205 eV)
    70      70      1.667      -0.284 au  Br            1.00      3 P:y             3
                        (      -7.716 eV)
    71      71       --         0.137 au  Br            1.00      4 P:y             3
                        (       3.720 eV)
    72      72       --         1.208 au  Br            1.00      5 P:y             3
                        (      32.874 eV)
    73      73       --         8.734 au  Br            1.00      6 P:y             3
                        (     237.661 eV)
    74      74       --        95.627 au  Br            1.00      7 P:y             3
                        (    2602.141 eV)
    75      75      2.000     -56.116 au  Br            1.00      1 P:z             3
                        (   -1526.987 eV)
    76      76      2.000      -6.365 au  Br            1.00      2 P:z             3
                        (    -173.205 eV)
    77      77      1.667      -0.284 au  Br            1.00      3 P:z             3
                        (      -7.716 eV)
    78      78       --         0.137 au  Br            1.00      4 P:z             3
                        (       3.720 eV)
    79      79       --         1.208 au  Br            1.00      5 P:z             3
                        (      32.874 eV)
    80      80       --         8.734 au  Br            1.00      6 P:z             3
                        (     237.661 eV)
    81      81       --        95.627 au  Br            1.00      7 P:z             3
                        (    2602.141 eV)
    82      82      2.000      -2.452 au  Br            1.00      1 D:z2            3
                        (     -66.719 eV)
    83      83       --         0.270 au  Br            1.00      2 D:z2            3
                        (       7.341 eV)
    84      84       --         2.706 au  Br            1.00      3 D:z2            3
                        (      73.633 eV)
    85      85       --        20.525 au  Br            1.00      4 D:z2            3
                        (     558.519 eV)
    86      86      2.000      -2.452 au  Br            1.00      1 D:x2-y2         3
                        (     -66.719 eV)
    87      87       --         0.270 au  Br            1.00      2 D:x2-y2         3
                        (       7.341 eV)
    88      88       --         2.706 au  Br            1.00      3 D:x2-y2         3
                        (      73.633 eV)
    89      89       --        20.525 au  Br            1.00      4 D:x2-y2         3
                        (     558.519 eV)
    90      90      2.000      -2.452 au  Br            1.00      1 D:xy            3
                        (     -66.719 eV)
    91      91       --         0.270 au  Br            1.00      2 D:xy            3
                        (       7.341 eV)
    92      92       --         2.706 au  Br            1.00      3 D:xy            3
                        (      73.633 eV)
    93      93       --        20.525 au  Br            1.00      4 D:xy            3
                        (     558.519 eV)
    94      94      2.000      -2.452 au  Br            1.00      1 D:xz            3
                        (     -66.719 eV)
    95      95       --         0.270 au  Br            1.00      2 D:xz            3
                        (       7.341 eV)
    96      96       --         2.706 au  Br            1.00      3 D:xz            3
                        (      73.633 eV)
    97      97       --        20.525 au  Br            1.00      4 D:xz            3
                        (     558.519 eV)
    98      98      2.000      -2.452 au  Br            1.00      1 D:yz            3
                        (     -66.719 eV)
    99      99       --         0.270 au  Br            1.00      2 D:yz            3
                        (       7.341 eV)
   100     100       --         2.706 au  Br            1.00      3 D:yz            3
                        (      73.633 eV)
   101     101       --        20.525 au  Br            1.00      4 D:yz            3
                        (     558.519 eV)
   102     102       --         0.857 au  Br            1.00      1 F:z3            3
                        (      23.313 eV)
   103     103       --         0.857 au  Br            1.00      1 F:z             3
                        (      23.313 eV)
   104     104       --         0.857 au  Br            1.00      1 F:xyz           3
                        (      23.313 eV)
   105     105       --         0.857 au  Br            1.00      1 F:z2x           3
                        (      23.313 eV)
   106     106       --         0.857 au  Br            1.00      1 F:z2y           3
                        (      23.313 eV)
   107     107       --         0.857 au  Br            1.00      1 F:x             3
                        (      23.313 eV)
   108     108       --         0.857 au  Br            1.00      1 F:y             3
                        (      23.313 eV)
   109     109      1.000      -0.240 au  H             1.00      1 S               4
                        (      -6.532 eV)
   110     110       --         0.088 au  H             1.00      2 S               4
                        (       2.394 eV)
   111     111       --         1.502 au  H             1.00      3 S               4
                        (      40.869 eV)
   112     112       --         0.406 au  H             1.00      1 P:x             4
                        (      11.051 eV)
   113     113       --         0.406 au  H             1.00      1 P:y             4
                        (      11.051 eV)
   114     114       --         0.406 au  H             1.00      1 P:z             4
                        (      11.051 eV)
   115     115       --         2.569 au  H             1.00      1 D:z2            4
                        (      69.917 eV)
   116     116       --         2.569 au  H             1.00      1 D:x2-y2         4
                        (      69.917 eV)
   117     117       --         2.569 au  H             1.00      1 D:xy            4
                        (      69.917 eV)
   118     118       --         2.569 au  H             1.00      1 D:xz            4
                        (      69.917 eV)
   119     119       --         2.569 au  H             1.00      1 D:yz            4
                        (      69.917 eV)
   120     120      1.000      -0.240 au  H             1.00      1 S               5
                        (      -6.532 eV)
   121     121       --         0.088 au  H             1.00      2 S               5
                        (       2.394 eV)
   122     122       --         1.502 au  H             1.00      3 S               5
                        (      40.869 eV)
   123     123       --         0.406 au  H             1.00      1 P:x             5
                        (      11.051 eV)
   124     124       --         0.406 au  H             1.00      1 P:y             5
                        (      11.051 eV)
   125     125       --         0.406 au  H             1.00      1 P:z             5
                        (      11.051 eV)
   126     126       --         2.569 au  H             1.00      1 D:z2            5
                        (      69.917 eV)
   127     127       --         2.569 au  H             1.00      1 D:x2-y2         5
                        (      69.917 eV)
   128     128       --         2.569 au  H             1.00      1 D:xy            5
                        (      69.917 eV)
   129     129       --         2.569 au  H             1.00      1 D:xz            5
                        (      69.917 eV)
   130     130       --         2.569 au  H             1.00      1 D:yz            5
                        (      69.917 eV)
   131     131      1.000      -0.240 au  H             1.00      1 S               6
                        (      -6.532 eV)
   132     132       --         0.088 au  H             1.00      2 S               6
                        (       2.394 eV)
   133     133       --         1.502 au  H             1.00      3 S               6
                        (      40.869 eV)
   134     134       --         0.406 au  H             1.00      1 P:x             6
                        (      11.051 eV)
   135     135       --         0.406 au  H             1.00      1 P:y             6
                        (      11.051 eV)
   136     136       --         0.406 au  H             1.00      1 P:z             6
                        (      11.051 eV)
   137     137       --         2.569 au  H             1.00      1 D:z2            6
                        (      69.917 eV)
   138     138       --         2.569 au  H             1.00      1 D:x2-y2         6
                        (      69.917 eV)
   139     139       --         2.569 au  H             1.00      1 D:xy            6
                        (      69.917 eV)
   140     140       --         2.569 au  H             1.00      1 D:xz            6
                        (      69.917 eV)
   141     141       --         2.569 au  H             1.00      1 D:yz            6
                        (      69.917 eV)
   142     142      2.000     -14.160 au  N             1.00      1 S               7
                        (    -385.319 eV)
   143     143      2.000      -0.678 au  N             1.00      2 S               7
                        (     -18.450 eV)
   144     144       --         0.517 au  N             1.00      3 S               7
                        (      14.073 eV)
   145     145       --         6.872 au  N             1.00      4 S               7
                        (     186.990 eV)
   146     146       --        63.432 au  N             1.00      5 S               7
                        (    1726.082 eV)
   147     147      1.000      -0.260 au  N             1.00      1 P:x             7
                        (      -7.062 eV)
   148     148       --         0.281 au  N             1.00      2 P:x             7
                        (       7.649 eV)
   149     149       --         3.275 au  N             1.00      3 P:x             7
                        (      89.105 eV)
   150     150      1.000      -0.260 au  N             1.00      1 P:y             7
                        (      -7.062 eV)
   151     151       --         0.281 au  N             1.00      2 P:y             7
                        (       7.649 eV)
   152     152       --         3.275 au  N             1.00      3 P:y             7
                        (      89.105 eV)
   153     153      1.000      -0.260 au  N             1.00      1 P:z             7
                        (      -7.062 eV)
   154     154       --         0.281 au  N             1.00      2 P:z             7
                        (       7.649 eV)
   155     155       --         3.275 au  N             1.00      3 P:z             7
                        (      89.105 eV)
   156     156       --         1.250 au  N             1.00      1 D:z2            7
                        (      34.005 eV)
   157     157       --         1.250 au  N             1.00      1 D:x2-y2         7
                        (      34.005 eV)
   158     158       --         1.250 au  N             1.00      1 D:xy            7
                        (      34.005 eV)
   159     159       --         1.250 au  N             1.00      1 D:xz            7
                        (      34.005 eV)
   160     160       --         1.250 au  N             1.00      1 D:yz            7
                        (      34.005 eV)
   161     161       --         4.013 au  N             1.00      1 F:z3            7
                        (     109.190 eV)
   162     162       --         4.013 au  N             1.00      1 F:z             7
                        (     109.190 eV)
   163     163       --         4.013 au  N             1.00      1 F:xyz           7
                        (     109.190 eV)
   164     164       --         4.013 au  N             1.00      1 F:z2x           7
                        (     109.190 eV)
   165     165       --         4.013 au  N             1.00      1 F:z2y           7
                        (     109.190 eV)
   166     166       --         4.013 au  N             1.00      1 F:x             7
                        (     109.190 eV)
   167     167       --         4.013 au  N             1.00      1 F:y             7
                        (     109.190 eV)
   168     168      2.000     -14.160 au  N             1.00      1 S               8
                        (    -385.319 eV)
   169     169      2.000      -0.678 au  N             1.00      2 S               8
                        (     -18.450 eV)
   170     170       --         0.517 au  N             1.00      3 S               8
                        (      14.073 eV)
   171     171       --         6.872 au  N             1.00      4 S               8
                        (     186.990 eV)
   172     172       --        63.432 au  N             1.00      5 S               8
                        (    1726.082 eV)
   173     173      1.000      -0.260 au  N             1.00      1 P:x             8
                        (      -7.062 eV)
   174     174       --         0.281 au  N             1.00      2 P:x             8
                        (       7.649 eV)
   175     175       --         3.275 au  N             1.00      3 P:x             8
                        (      89.105 eV)
   176     176      1.000      -0.260 au  N             1.00      1 P:y             8
                        (      -7.062 eV)
   177     177       --         0.281 au  N             1.00      2 P:y             8
                        (       7.649 eV)
   178     178       --         3.275 au  N             1.00      3 P:y             8
                        (      89.105 eV)
   179     179      1.000      -0.260 au  N             1.00      1 P:z             8
                        (      -7.062 eV)
   180     180       --         0.281 au  N             1.00      2 P:z             8
                        (       7.649 eV)
   181     181       --         3.275 au  N             1.00      3 P:z             8
                        (      89.105 eV)
   182     182       --         1.250 au  N             1.00      1 D:z2            8
                        (      34.005 eV)
   183     183       --         1.250 au  N             1.00      1 D:x2-y2         8
                        (      34.005 eV)
   184     184       --         1.250 au  N             1.00      1 D:xy            8
                        (      34.005 eV)
   185     185       --         1.250 au  N             1.00      1 D:xz            8
                        (      34.005 eV)
   186     186       --         1.250 au  N             1.00      1 D:yz            8
                        (      34.005 eV)
   187     187       --         4.013 au  N             1.00      1 F:z3            8
                        (     109.190 eV)
   188     188       --         4.013 au  N             1.00      1 F:z             8
                        (     109.190 eV)
   189     189       --         4.013 au  N             1.00      1 F:xyz           8
                        (     109.190 eV)
   190     190       --         4.013 au  N             1.00      1 F:z2x           8
                        (     109.190 eV)
   191     191       --         4.013 au  N             1.00      1 F:z2y           8
                        (     109.190 eV)
   192     192       --         4.013 au  N             1.00      1 F:x             8
                        (     109.190 eV)
   193     193       --         4.013 au  N             1.00      1 F:y             8
                        (     109.190 eV)
   194     194      2.000     -14.160 au  N             1.00      1 S               9
                        (    -385.319 eV)
   195     195      2.000      -0.678 au  N             1.00      2 S               9
                        (     -18.450 eV)
   196     196       --         0.517 au  N             1.00      3 S               9
                        (      14.073 eV)
   197     197       --         6.872 au  N             1.00      4 S               9
                        (     186.990 eV)
   198     198       --        63.432 au  N             1.00      5 S               9
                        (    1726.082 eV)
   199     199      1.000      -0.260 au  N             1.00      1 P:x             9
                        (      -7.062 eV)
   200     200       --         0.281 au  N             1.00      2 P:x             9
                        (       7.649 eV)
   201     201       --         3.275 au  N             1.00      3 P:x             9
                        (      89.105 eV)
   202     202      1.000      -0.260 au  N             1.00      1 P:y             9
                        (      -7.062 eV)
   203     203       --         0.281 au  N             1.00      2 P:y             9
                        (       7.649 eV)
   204     204       --         3.275 au  N             1.00      3 P:y             9
                        (      89.105 eV)
   205     205      1.000      -0.260 au  N             1.00      1 P:z             9
                        (      -7.062 eV)
   206     206       --         0.281 au  N             1.00      2 P:z             9
                        (       7.649 eV)
   207     207       --         3.275 au  N             1.00      3 P:z             9
                        (      89.105 eV)
   208     208       --         1.250 au  N             1.00      1 D:z2            9
                        (      34.005 eV)
   209     209       --         1.250 au  N             1.00      1 D:x2-y2         9
                        (      34.005 eV)
   210     210       --         1.250 au  N             1.00      1 D:xy            9
                        (      34.005 eV)
   211     211       --         1.250 au  N             1.00      1 D:xz            9
                        (      34.005 eV)
   212     212       --         1.250 au  N             1.00      1 D:yz            9
                        (      34.005 eV)
   213     213       --         4.013 au  N             1.00      1 F:z3            9
                        (     109.190 eV)
   214     214       --         4.013 au  N             1.00      1 F:z             9
                        (     109.190 eV)
   215     215       --         4.013 au  N             1.00      1 F:xyz           9
                        (     109.190 eV)
   216     216       --         4.013 au  N             1.00      1 F:z2x           9
                        (     109.190 eV)
   217     217       --         4.013 au  N             1.00      1 F:z2y           9
                        (     109.190 eV)
   218     218       --         4.013 au  N             1.00      1 F:x             9
                        (     109.190 eV)
   219     219       --         4.013 au  N             1.00      1 F:y             9
                        (     109.190 eV)
   220     220      2.000     -18.941 au  O             1.00      1 S              10
                        (    -515.403 eV)
   221     221      2.000      -0.876 au  O             1.00      2 S              10
                        (     -23.838 eV)
   222     222       --         0.791 au  O             1.00      3 S              10
                        (      21.524 eV)
   223     223       --        13.422 au  O             1.00      4 S              10
                        (     365.226 eV)
   224     224       --       121.561 au  O             1.00      5 S              10
                        (    3307.838 eV)
   225     225      1.333      -0.331 au  O             1.00      1 P:x            10
                        (      -9.020 eV)
   226     226       --         0.347 au  O             1.00      2 P:x            10
                        (       9.437 eV)
   227     227       --         3.820 au  O             1.00      3 P:x            10
                        (     103.939 eV)
   228     228      1.333      -0.331 au  O             1.00      1 P:y            10
                        (      -9.020 eV)
   229     229       --         0.347 au  O             1.00      2 P:y            10
                        (       9.437 eV)
   230     230       --         3.820 au  O             1.00      3 P:y            10
                        (     103.939 eV)
   231     231      1.333      -0.331 au  O             1.00      1 P:z            10
                        (      -9.020 eV)
   232     232       --         0.347 au  O             1.00      2 P:z            10
                        (       9.437 eV)
   233     233       --         3.820 au  O             1.00      3 P:z            10
                        (     103.939 eV)
   234     234       --         1.071 au  O             1.00      1 D:z2           10
                        (      29.134 eV)
   235     235       --         1.071 au  O             1.00      1 D:x2-y2        10
                        (      29.134 eV)
   236     236       --         1.071 au  O             1.00      1 D:xy           10
                        (      29.134 eV)
   237     237       --         1.071 au  O             1.00      1 D:xz           10
                        (      29.134 eV)
   238     238       --         1.071 au  O             1.00      1 D:yz           10
                        (      29.134 eV)
   239     239       --         3.359 au  O             1.00      1 F:z3           10
                        (      91.410 eV)
   240     240       --         3.359 au  O             1.00      1 F:z            10
                        (      91.410 eV)
   241     241       --         3.359 au  O             1.00      1 F:xyz          10
                        (      91.410 eV)
   242     242       --         3.359 au  O             1.00      1 F:z2x          10
                        (      91.410 eV)
   243     243       --         3.359 au  O             1.00      1 F:z2y          10
                        (      91.410 eV)
   244     244       --         3.359 au  O             1.00      1 F:x            10
                        (      91.410 eV)
   245     245       --         3.359 au  O             1.00      1 F:y            10
                        (      91.410 eV)
   246     246      2.000     -18.941 au  O             1.00      1 S              11
                        (    -515.403 eV)
   247     247      2.000      -0.876 au  O             1.00      2 S              11
                        (     -23.838 eV)
   248     248       --         0.791 au  O             1.00      3 S              11
                        (      21.524 eV)
   249     249       --        13.422 au  O             1.00      4 S              11
                        (     365.226 eV)
   250     250       --       121.561 au  O             1.00      5 S              11
                        (    3307.838 eV)
   251     251      1.333      -0.331 au  O             1.00      1 P:x            11
                        (      -9.020 eV)
   252     252       --         0.347 au  O             1.00      2 P:x            11
                        (       9.437 eV)
   253     253       --         3.820 au  O             1.00      3 P:x            11
                        (     103.939 eV)
   254     254      1.333      -0.331 au  O             1.00      1 P:y            11
                        (      -9.020 eV)
   255     255       --         0.347 au  O             1.00      2 P:y            11
                        (       9.437 eV)
   256     256       --         3.820 au  O             1.00      3 P:y            11
                        (     103.939 eV)
   257     257      1.333      -0.331 au  O             1.00      1 P:z            11
                        (      -9.020 eV)
   258     258       --         0.347 au  O             1.00      2 P:z            11
                        (       9.437 eV)
   259     259       --         3.820 au  O             1.00      3 P:z            11
                        (     103.939 eV)
   260     260       --         1.071 au  O             1.00      1 D:z2           11
                        (      29.134 eV)
   261     261       --         1.071 au  O             1.00      1 D:x2-y2        11
                        (      29.134 eV)
   262     262       --         1.071 au  O             1.00      1 D:xy           11
                        (      29.134 eV)
   263     263       --         1.071 au  O             1.00      1 D:xz           11
                        (      29.134 eV)
   264     264       --         1.071 au  O             1.00      1 D:yz           11
                        (      29.134 eV)
   265     265       --         3.359 au  O             1.00      1 F:z3           11
                        (      91.410 eV)
   266     266       --         3.359 au  O             1.00      1 F:z            11
                        (      91.410 eV)
   267     267       --         3.359 au  O             1.00      1 F:xyz          11
                        (      91.410 eV)
   268     268       --         3.359 au  O             1.00      1 F:z2x          11
                        (      91.410 eV)
   269     269       --         3.359 au  O             1.00      1 F:z2y          11
                        (      91.410 eV)
   270     270       --         3.359 au  O             1.00      1 F:x            11
                        (      91.410 eV)
   271     271       --         3.359 au  O             1.00      1 F:y            11
                        (      91.410 eV)
   272     272      2.000     -18.941 au  O             1.00      1 S              12
                        (    -515.403 eV)
   273     273      2.000      -0.876 au  O             1.00      2 S              12
                        (     -23.838 eV)
   274     274       --         0.791 au  O             1.00      3 S              12
                        (      21.524 eV)
   275     275       --        13.422 au  O             1.00      4 S              12
                        (     365.226 eV)
   276     276       --       121.561 au  O             1.00      5 S              12
                        (    3307.838 eV)
   277     277      1.333      -0.331 au  O             1.00      1 P:x            12
                        (      -9.020 eV)
   278     278       --         0.347 au  O             1.00      2 P:x            12
                        (       9.437 eV)
   279     279       --         3.820 au  O             1.00      3 P:x            12
                        (     103.939 eV)
   280     280      1.333      -0.331 au  O             1.00      1 P:y            12
                        (      -9.020 eV)
   281     281       --         0.347 au  O             1.00      2 P:y            12
                        (       9.437 eV)
   282     282       --         3.820 au  O             1.00      3 P:y            12
                        (     103.939 eV)
   283     283      1.333      -0.331 au  O             1.00      1 P:z            12
                        (      -9.020 eV)
   284     284       --         0.347 au  O             1.00      2 P:z            12
                        (       9.437 eV)
   285     285       --         3.820 au  O             1.00      3 P:z            12
                        (     103.939 eV)
   286     286       --         1.071 au  O             1.00      1 D:z2           12
                        (      29.134 eV)
   287     287       --         1.071 au  O             1.00      1 D:x2-y2        12
                        (      29.134 eV)
   288     288       --         1.071 au  O             1.00      1 D:xy           12
                        (      29.134 eV)
   289     289       --         1.071 au  O             1.00      1 D:xz           12
                        (      29.134 eV)
   290     290       --         1.071 au  O             1.00      1 D:yz           12
                        (      29.134 eV)
   291     291       --         3.359 au  O             1.00      1 F:z3           12
                        (      91.410 eV)
   292     292       --         3.359 au  O             1.00      1 F:z            12
                        (      91.410 eV)
   293     293       --         3.359 au  O             1.00      1 F:xyz          12
                        (      91.410 eV)
   294     294       --         3.359 au  O             1.00      1 F:z2x          12
                        (      91.410 eV)
   295     295       --         3.359 au  O             1.00      1 F:z2y          12
                        (      91.410 eV)
   296     296       --         3.359 au  O             1.00      1 F:x            12
                        (      91.410 eV)
   297     297       --         3.359 au  O             1.00      1 F:y            12
                        (      91.410 eV)
   298     298      2.000     -18.941 au  O             1.00      1 S              13
                        (    -515.403 eV)
   299     299      2.000      -0.876 au  O             1.00      2 S              13
                        (     -23.838 eV)
   300     300       --         0.791 au  O             1.00      3 S              13
                        (      21.524 eV)
   301     301       --        13.422 au  O             1.00      4 S              13
                        (     365.226 eV)
   302     302       --       121.561 au  O             1.00      5 S              13
                        (    3307.838 eV)
   303     303      1.333      -0.331 au  O             1.00      1 P:x            13
                        (      -9.020 eV)
   304     304       --         0.347 au  O             1.00      2 P:x            13
                        (       9.437 eV)
   305     305       --         3.820 au  O             1.00      3 P:x            13
                        (     103.939 eV)
   306     306      1.333      -0.331 au  O             1.00      1 P:y            13
                        (      -9.020 eV)
   307     307       --         0.347 au  O             1.00      2 P:y            13
                        (       9.437 eV)
   308     308       --         3.820 au  O             1.00      3 P:y            13
                        (     103.939 eV)
   309     309      1.333      -0.331 au  O             1.00      1 P:z            13
                        (      -9.020 eV)
   310     310       --         0.347 au  O             1.00      2 P:z            13
                        (       9.437 eV)
   311     311       --         3.820 au  O             1.00      3 P:z            13
                        (     103.939 eV)
   312     312       --         1.071 au  O             1.00      1 D:z2           13
                        (      29.134 eV)
   313     313       --         1.071 au  O             1.00      1 D:x2-y2        13
                        (      29.134 eV)
   314     314       --         1.071 au  O             1.00      1 D:xy           13
                        (      29.134 eV)
   315     315       --         1.071 au  O             1.00      1 D:xz           13
                        (      29.134 eV)
   316     316       --         1.071 au  O             1.00      1 D:yz           13
                        (      29.134 eV)
   317     317       --         3.359 au  O             1.00      1 F:z3           13
                        (      91.410 eV)
   318     318       --         3.359 au  O             1.00      1 F:z            13
                        (      91.410 eV)
   319     319       --         3.359 au  O             1.00      1 F:xyz          13
                        (      91.410 eV)
   320     320       --         3.359 au  O             1.00      1 F:z2x          13
                        (      91.410 eV)
   321     321       --         3.359 au  O             1.00      1 F:z2y          13
                        (      91.410 eV)
   322     322       --         3.359 au  O             1.00      1 F:x            13
                        (      91.410 eV)
   323     323       --         3.359 au  O             1.00      1 F:y            13
                        (      91.410 eV)



 ================================
 (Slater-type)  F U N C T I O N S  ***  (Basis and Fit)  ***
 ================================
  

 Atom Type    1  (C)
 ==============

 Valence Basis Sets:  10
 -----------------------
   1 S    7.680000
   1 S    5.000000
   2 S    1.280000
   2 S    2.100000
   2 S    4.600000
   2 P    0.820000
   2 P    1.480000
   2 P    2.940000
   3 D    2.200000
   4 F    3.300000

 Atom Type    2  (Br)
 ==============

 Valence Basis Sets:  20
 -----------------------
   1 S   41.300000
   1 S   32.800000
   2 S   13.900000
   2 P   19.450000
   2 P   13.100000
   3 S    7.200000
   3 S    4.950000
   3 P    7.900000
   3 P    5.050000
   3 D   10.900000
   3 D    6.050000
   3 D    3.500000
   4 S    4.500000
   4 S    2.800000
   4 S    1.800000
   4 P    3.250000
   4 P    1.950000
   4 P    1.200000
   4 D    1.800000
   4 F    1.800000

 Atom Type    3  (H)
 ==============

 Valence Basis Sets:   5
 -----------------------
   1 S    0.690000
   1 S    0.920000
   1 S    1.580000
   2 P    1.250000
   3 D    2.500000

 Atom Type    4  (N)
 ==============

 Valence Basis Sets:  10
 -----------------------
   1 S    8.740000
   1 S    5.900000
   2 S    5.150000
   2 S    2.500000
   2 S    1.500000
   2 P    3.680000
   2 P    1.880000
   2 P    1.000000
   3 D    2.200000
   4 F    3.300000

 Atom Type    5  (O)
 ==============

 Valence Basis Sets:  10
 -----------------------
   1 S    9.800000
   1 S    6.800000
   2 S    7.580000
   2 S    2.880000
   2 S    1.720000
   2 P    4.080000
   2 P    2.080000
   2 P    1.120000
   3 D    2.000000
   4 F    3.000000


 BAS: List of all Elementary Cartesian Basis Functions
 =====================================================

 The numbering in the list below (to the right of the function characteristics) is referred
 to in print-outs of MO eigenvectors and Mulliken populations in the BAS representation
 (as contrasted to the SFO representation).

 Notes:
 1. The functions are characterized by a polynomial prefactor (powers of x,y,z and r) and
    an exponential decay factor alpha.
 2. Since the basis sets are specific for an atom TYPE, the individual functions occur on
    all atoms of that type.
 3. The word 'Core' in the left margin signals that it is a Core Function (CF) : not a
    degree of freedom in the valence set, but only used to ensure orthogonalization of
    the other valence basis functions on the frozen Core Orbitals.


 (power of) X  Y  Z  R     Alpha  on Atom
            ==========     =====     ==========

 C                                    1    2
                                  ---------------------------------------------------------------------------
            0  0  0  0     7.680      1   31
            0  0  0  0     5.000      2   32
            0  0  0  1     1.280      3   33
            0  0  0  1     2.100      4   34
            0  0  0  1     4.600      5   35
            1  0  0  0     0.820      6   36
            0  1  0  0     0.820      7   37
            0  0  1  0     0.820      8   38
            1  0  0  0     1.480      9   39
            0  1  0  0     1.480     10   40
            0  0  1  0     1.480     11   41
            1  0  0  0     2.940     12   42
            0  1  0  0     2.940     13   43
            0  0  1  0     2.940     14   44
            2  0  0  0     2.200     15   45
            1  1  0  0     2.200     16   46
            1  0  1  0     2.200     17   47
            0  2  0  0     2.200     18   48
            0  1  1  0     2.200     19   49
            0  0  2  0     2.200     20   50
            3  0  0  0     3.300     21   51
            2  1  0  0     3.300     22   52
            2  0  1  0     3.300     23   53
            1  2  0  0     3.300     24   54
            1  1  1  0     3.300     25   55
            1  0  2  0     3.300     26   56
            0  3  0  0     3.300     27   57
            0  2  1  0     3.300     28   58
            0  1  2  0     3.300     29   59
            0  0  3  0     3.300     30   60

 Br                                   3
                                  ---------------------------------------------------------------------------
            0  0  0  0    41.300     61
            0  0  0  0    32.800     62
            0  0  0  1    13.900     63
            1  0  0  0    19.450     64
            0  1  0  0    19.450     65
            0  0  1  0    19.450     66
            1  0  0  0    13.100     67
            0  1  0  0    13.100     68
            0  0  1  0    13.100     69
            0  0  0  2     7.200     70
            0  0  0  2     4.950     71
            1  0  0  1     7.900     72
            0  1  0  1     7.900     73
            0  0  1  1     7.900     74
            1  0  0  1     5.050     75
            0  1  0  1     5.050     76
            0  0  1  1     5.050     77
            2  0  0  0    10.900     78
            1  1  0  0    10.900     79
            1  0  1  0    10.900     80
            0  2  0  0    10.900     81
            0  1  1  0    10.900     82
            0  0  2  0    10.900     83
            2  0  0  0     6.050     84
            1  1  0  0     6.050     85
            1  0  1  0     6.050     86
            0  2  0  0     6.050     87
            0  1  1  0     6.050     88
            0  0  2  0     6.050     89
            2  0  0  0     3.500     90
            1  1  0  0     3.500     91
            1  0  1  0     3.500     92
            0  2  0  0     3.500     93
            0  1  1  0     3.500     94
            0  0  2  0     3.500     95
            0  0  0  3     4.500     96
            0  0  0  3     2.800     97
            0  0  0  3     1.800     98
            1  0  0  2     3.250     99
            0  1  0  2     3.250    100
            0  0  1  2     3.250    101
            1  0  0  2     1.950    102
            0  1  0  2     1.950    103
            0  0  1  2     1.950    104
            1  0  0  2     1.200    105
            0  1  0  2     1.200    106
            0  0  1  2     1.200    107
            2  0  0  1     1.800    108
            1  1  0  1     1.800    109
            1  0  1  1     1.800    110
            0  2  0  1     1.800    111
            0  1  1  1     1.800    112
            0  0  2  1     1.800    113
            3  0  0  0     1.800    114
            2  1  0  0     1.800    115
            2  0  1  0     1.800    116
            1  2  0  0     1.800    117
            1  1  1  0     1.800    118
            1  0  2  0     1.800    119
            0  3  0  0     1.800    120
            0  2  1  0     1.800    121
            0  1  2  0     1.800    122
            0  0  3  0     1.800    123

 H                                    4    5    6
                                  ---------------------------------------------------------------------------
            0  0  0  0     0.690    124  136  148
            0  0  0  0     0.920    125  137  149
            0  0  0  0     1.580    126  138  150
            1  0  0  0     1.250    127  139  151
            0  1  0  0     1.250    128  140  152
            0  0  1  0     1.250    129  141  153
            2  0  0  0     2.500    130  142  154
            1  1  0  0     2.500    131  143  155
            1  0  1  0     2.500    132  144  156
            0  2  0  0     2.500    133  145  157
            0  1  1  0     2.500    134  146  158
            0  0  2  0     2.500    135  147  159

 N                                    7    8    9
                                  ---------------------------------------------------------------------------
            0  0  0  0     8.740    160  190  220
            0  0  0  0     5.900    161  191  221
            0  0  0  1     5.150    162  192  222
            0  0  0  1     2.500    163  193  223
            0  0  0  1     1.500    164  194  224
            1  0  0  0     3.680    165  195  225
            0  1  0  0     3.680    166  196  226
            0  0  1  0     3.680    167  197  227
            1  0  0  0     1.880    168  198  228
            0  1  0  0     1.880    169  199  229
            0  0  1  0     1.880    170  200  230
            1  0  0  0     1.000    171  201  231
            0  1  0  0     1.000    172  202  232
            0  0  1  0     1.000    173  203  233
            2  0  0  0     2.200    174  204  234
            1  1  0  0     2.200    175  205  235
            1  0  1  0     2.200    176  206  236
            0  2  0  0     2.200    177  207  237
            0  1  1  0     2.200    178  208  238
            0  0  2  0     2.200    179  209  239
            3  0  0  0     3.300    180  210  240
            2  1  0  0     3.300    181  211  241
            2  0  1  0     3.300    182  212  242
            1  2  0  0     3.300    183  213  243
            1  1  1  0     3.300    184  214  244
            1  0  2  0     3.300    185  215  245
            0  3  0  0     3.300    186  216  246
            0  2  1  0     3.300    187  217  247
            0  1  2  0     3.300    188  218  248
            0  0  3  0     3.300    189  219  249

 O                                   10   11   12   13
                                  ---------------------------------------------------------------------------
            0  0  0  0     9.800    250  280  310  340
            0  0  0  0     6.800    251  281  311  341
            0  0  0  1     7.580    252  282  312  342
            0  0  0  1     2.880    253  283  313  343
            0  0  0  1     1.720    254  284  314  344
            1  0  0  0     4.080    255  285  315  345
            0  1  0  0     4.080    256  286  316  346
            0  0  1  0     4.080    257  287  317  347
            1  0  0  0     2.080    258  288  318  348
            0  1  0  0     2.080    259  289  319  349
            0  0  1  0     2.080    260  290  320  350
            1  0  0  0     1.120    261  291  321  351
            0  1  0  0     1.120    262  292  322  352
            0  0  1  0     1.120    263  293  323  353
            2  0  0  0     2.000    264  294  324  354
            1  1  0  0     2.000    265  295  325  355
            1  0  1  0     2.000    266  296  326  356
            0  2  0  0     2.000    267  297  327  357
            0  1  1  0     2.000    268  298  328  358
            0  0  2  0     2.000    269  299  329  359
            3  0  0  0     3.000    270  300  330  360
            2  1  0  0     3.000    271  301  331  361
            2  0  1  0     3.000    272  302  332  362
            1  2  0  0     3.000    273  303  333  363
            1  1  1  0     3.000    274  304  334  364
            1  0  2  0     3.000    275  305  335  365
            0  3  0  0     3.000    276  306  336  366
            0  2  1  0     3.000    277  307  337  367
            0  1  2  0     3.000    278  308  338  368
            0  0  3  0     3.000    279  309  339  369

 Total number of charge fitting functions (nprimf)      1076
 Total number of Cartesian basis functions (naos)        369
 Total number of Cartesian core functions  (ncos)          0

 ***************************************************************************************************



                                              ***********************
                                              *  T E C H N I C A L  *
                                              ***********************
  



 =============================================================
 P A R A L L E L I Z A T I O N  and  V E C T O R I Z A T I O N
 =============================================================
  
 Nr of parallel processes:                                1
 Maximum vector length in NumInt loops:                 128



 =====================
 S C F   U P D A T E S
 =====================
  
 Max. nr. of cycles:                               200
 Convergence criterion:                              0.0000010000
   secondary criterion:                              0.0010000000

 Mix parameter (when DIIS does not apply):           0.2000000000
 Mixed ADIIS+SDIIS will be used                  
    Max number of expansion vectors:                10
    Pure ADIIS when Max([F,P]) is above              0.1000000000
    Pure SDIIS when Max([F,P]) is below              0.0010000000
 Automatic ElectronSmearing (in case of problematic SCF convergence) disabled



 =================
 P R E C I S I O N  ***  (General: NumInt, NeglectFunctionTails, ...)  ***
 =================
  

 NumInt:           Target precision:                 4.0000000000
 -------           Initial precision:                4.0000000000
                   Min. precision (optimization):    4.0000000000

 Neglect Functions:          Basis functions:        0.1000000000E-05
 ------------------          Fit functions:          0.1000000000E-05



 ===========================
 L I N E A R   S C A L I N G
 ===========================
  

 Cut-off radii density fit:                        0.1000000000E-07
 Overlap cut-off criterion AO matrix elements:     0.1000000000E-05
 Cut-offs for Coulomb potential and fitted density:0.1000000000E-07
 Cut-off criterion for Coulomb multipole terms:    0.1000000000E-07
 Progressive Convergence parameter:                 0.000000000    
 ***************************************************************************************************



                                            ***************************
                                            *  C O M P U T A T I O N  *
                                            ***************************
  

 Number of elements of the density matrix on this node (used, total):     68265     68265



 ===========================================
 Numerical Integration : Fuzzy Cells (Becke)
 ===========================================
  
 Becke grid quality: NORMAL         
  
 Lebedev angular grid order:             min:  11 max:  23
 Nr. of radial points:                   min:  46 max:  77

 Total nr. of points:      90504
 Nr. of blocks:              708
 Block length:               128
 Nr. of dummy points:        120


 Test of Precision of the Numerical Integration Grid
 ===================================================

 Integral of the Total Core Density:                   0.00000000000000



 ========================
 Density Fitting (zlmFit)
 ========================
  
 ZlmFit Fit Quality: NORMAL         
  
 Max L-expansion:                        min:   6 max:   7
 Nr. of radial interpolation points:     min:  39 max:  72



 =====
 S C F  ***  ScaSCF  ***
 =====
  
 Initial density matrix is calculated as sum of fragments

 CYCLE    1
 SCF Error: norm([F,P])=      7.297847450582, max([F,P])=      1.262222193761
 orbitals (Q,E):
 ---------------
 A :42...62          ( 2.00    -0.4550)  ( 2.00    -0.4074)  ( 2.00    -0.3931)  ( 2.00    -0.3919)
                     ( 2.00    -0.3877)  ( 2.00    -0.3873)  ( 2.00    -0.3734)  ( 2.00    -0.3719)
                     ( 2.00    -0.2947)  ( 2.00    -0.2928)  ( 1.00    -0.2788)  ( 0.00    -0.2092)
                     ( 0.00    -0.1681)  ( 0.00    -0.1180)  ( 0.00    -0.0520)  ( 0.00    -0.0295)
                     ( 0.00    -0.0068)  ( 0.00     0.0043)  ( 0.00     0.0466)  ( 0.00     0.0655)
                     ( 0.00     0.0698)

 CYCLE    2
   MIX coefficients:  0.8000  0.2000
 SCF Error: norm([F,P])=      1.399247691836, max([F,P])=      0.218919553393
 orbitals (Q,E):
 ---------------
 A :42...53          ( 2.00    -0.4225)  ( 2.00    -0.3825)  ( 2.00    -0.3552)  ( 2.00    -0.3539)
                     ( 2.00    -0.3463)  ( 2.00    -0.3421)  ( 2.00    -0.3308)  ( 2.00    -0.3221)
                     ( 2.00    -0.3052)  ( 2.00    -0.3034)  ( 1.00    -0.2659)  ( 0.00    -0.2006)

 CYCLE    3
  SDIIS (wt  0.000): -0.3940  1.3940
 A-DIIS (wt  1.000):  0.0000  1.0000
  DIIS coefficients:  0.0000  1.0000
 SCF Error: norm([F,P])=      0.471270078818, max([F,P])=      0.084454446524
 orbitals (Q,E):
 ---------------
 A :42...53          ( 2.00    -0.3660)  ( 2.00    -0.3179)  ( 2.00    -0.2793)  ( 2.00    -0.2733)
                     ( 2.00    -0.2670)  ( 2.00    -0.2641)  ( 2.00    -0.2566)  ( 2.00    -0.2555)
                     ( 2.00    -0.2405)  ( 2.00    -0.2327)  ( 1.00    -0.2091)  ( 0.00    -0.1466)

 CYCLE    4
  SDIIS (wt  0.000):  0.2597  0.2436  0.4967
 A-DIIS (wt  1.000): -0.0000  0.7508  0.2492
  DIIS coefficients: -0.0000  0.7508  0.2492
 SCF Error: norm([F,P])=      0.947831363711, max([F,P])=      0.155563039519
 orbitals (Q,E):
 ---------------
 A :42...53          ( 2.00    -0.3776)  ( 2.00    -0.3374)  ( 2.00    -0.3063)  ( 2.00    -0.2996)
                     ( 2.00    -0.2956)  ( 2.00    -0.2923)  ( 2.00    -0.2705)  ( 2.00    -0.2660)
                     ( 2.00    -0.2546)  ( 2.00    -0.2524)  ( 1.00    -0.2233)  ( 0.00    -0.1570)

 CYCLE    5
  SDIIS (wt  0.710): -0.0035  0.3654  0.0948  0.5434
 A-DIIS (wt  0.290):  0.0000  0.0727  0.0000  0.9273
  DIIS coefficients: -0.0025  0.2806  0.0673  0.6546
 SCF Error: norm([F,P])=      0.189964254187, max([F,P])=      0.029679593472
 orbitals (Q,E):
 ---------------
 A :42...53          ( 2.00    -0.3998)  ( 2.00    -0.3562)  ( 2.00    -0.3262)  ( 2.00    -0.3189)
                     ( 2.00    -0.3097)  ( 2.00    -0.3059)  ( 2.00    -0.2916)  ( 2.00    -0.2792)
                     ( 2.00    -0.2777)  ( 2.00    -0.2753)  ( 1.00    -0.2425)  ( 0.00    -0.1773)

 CYCLE    6
  SDIIS (wt  0.710): -0.0378  0.2440 -0.0060  0.5064  0.2934
 A-DIIS (wt  0.290):  0.0000  0.0000  0.0000  0.4616  0.5384
  DIIS coefficients: -0.0269  0.1733 -0.0042  0.4934  0.3644
 SCF Error: norm([F,P])=      0.171591150257, max([F,P])=      0.034000366059
 orbitals (Q,E):
 ---------------
 A :42...53          ( 2.00    -0.3943)  ( 2.00    -0.3531)  ( 2.00    -0.3216)  ( 2.00    -0.3143)
                     ( 2.00    -0.3113)  ( 2.00    -0.3097)  ( 2.00    -0.2879)  ( 2.00    -0.2799)
                     ( 2.00    -0.2719)  ( 2.00    -0.2697)  ( 1.00    -0.2397)  ( 0.00    -0.1731)

 CYCLE    7
  SDIIS (wt  0.710): -0.0045  0.1062  0.0076  0.3321  0.3201  0.2385
 A-DIIS (wt  0.290):  0.0000  0.0000  0.0000  0.0099  0.3828  0.6073
  DIIS coefficients: -0.0032  0.0754  0.0054  0.2387  0.3383  0.3453
 SCF Error: norm([F,P])=      0.128697492242, max([F,P])=      0.034569393556
 orbitals (Q,E):
 ---------------
 A :42...53          ( 2.00    -0.3906)  ( 2.00    -0.3502)  ( 2.00    -0.3186)  ( 2.00    -0.3118)
                     ( 2.00    -0.3084)  ( 2.00    -0.3039)  ( 2.00    -0.2842)  ( 2.00    -0.2789)
                     ( 2.00    -0.2702)  ( 2.00    -0.2680)  ( 1.00    -0.2359)  ( 0.00    -0.1701)

 CYCLE    8
  SDIIS (wt  0.856):  0.0018  0.0412  0.0077  0.1706  0.2336  0.2914  0.2537
 A-DIIS (wt  0.144):  0.0000  0.0000  0.0000  0.0000  0.0315  0.3055  0.6630
  DIIS coefficients:  0.0015  0.0353  0.0066  0.1460  0.2045  0.2934  0.3128
 SCF Error: norm([F,P])=      0.068172921768, max([F,P])=      0.015278611596
 orbitals (Q,E):
 ---------------
 A :42...53          ( 2.00    -0.3925)  ( 2.00    -0.3511)  ( 2.00    -0.3206)  ( 2.00    -0.3130)
                     ( 2.00    -0.3081)  ( 2.00    -0.3044)  ( 2.00    -0.2864)  ( 2.00    -0.2781)
                     ( 2.00    -0.2711)  ( 2.00    -0.2689)  ( 1.00    -0.2372)  ( 0.00    -0.1716)

 CYCLE    9
  SDIIS (wt  0.985):  0.0005  0.0187  0.0026  0.0812  0.1207  0.1914  0.2381  0.3467
 A-DIIS (wt  0.015):  0.0000  0.0000  0.0000  0.0000  0.0000  0.0000  0.0687  0.9313
  DIIS coefficients:  0.0005  0.0184  0.0026  0.0801  0.1189  0.1886  0.2356  0.3553
 SCF Error: norm([F,P])=      0.016138198090, max([F,P])=      0.002443345884
 orbitals (Q,E):
 ---------------
 A :42...53          ( 2.00    -0.3924)  ( 2.00    -0.3513)  ( 2.00    -0.3202)  ( 2.00    -0.3128)
                     ( 2.00    -0.3085)  ( 2.00    -0.3047)  ( 2.00    -0.2859)  ( 2.00    -0.2785)
                     ( 2.00    -0.2708)  ( 2.00    -0.2687)  ( 1.00    -0.2374)  ( 0.00    -0.1714)

 CYCLE   10
  SDIIS (wt  0.990): -0.0001  0.0084  0.0005  0.0388  0.0623  0.1170  0.1710  0.3495  0.2526
 A-DIIS (wt  0.010):  0.0000  0.0000  0.0000  0.0000  0.0000  0.0000  0.0000  0.2259  0.7741
  DIIS coefficients: -0.0001  0.0084  0.0005  0.0384  0.0617  0.1158  0.1693  0.3482  0.2578
 SCF Error: norm([F,P])=      0.008605325511, max([F,P])=      0.001981744329
 orbitals (Q,E):
 ---------------
 A :42...53          ( 2.00    -0.3924)  ( 2.00    -0.3512)  ( 2.00    -0.3202)  ( 2.00    -0.3128)
                     ( 2.00    -0.3085)  ( 2.00    -0.3047)  ( 2.00    -0.2860)  ( 2.00    -0.2786)
                     ( 2.00    -0.2709)  ( 2.00    -0.2687)  ( 1.00    -0.2373)  ( 0.00    -0.1714)

 CYCLE   11
  SDIIS (wt  1.000): -0.0013  0.0042 -0.0009  0.0143  0.0246  0.0524  0.0838  0.1999  0.1913  0.4316
  DIIS coefficients: -0.0013  0.0042 -0.0009  0.0143  0.0246  0.0524  0.0838  0.1999  0.1913  0.4316
 SCF Error: norm([F,P])=      0.001924174023, max([F,P])=      0.000484327363
 orbitals (Q,E):
 ---------------
 A :42...53          ( 2.00    -0.3924)  ( 2.00    -0.3512)  ( 2.00    -0.3203)  ( 2.00    -0.3128)
                     ( 2.00    -0.3085)  ( 2.00    -0.3047)  ( 2.00    -0.2861)  ( 2.00    -0.2786)
                     ( 2.00    -0.2710)  ( 2.00    -0.2688)  ( 1.00    -0.2373)  ( 0.00    -0.1714)

 CYCLE   12
  SDIIS (wt  1.000):  0.0005  0.0002  0.0026  0.0066  0.0167  0.0273  0.0707  0.0816  0.2807  0.5133
  DIIS coefficients:  0.0005  0.0002  0.0026  0.0066  0.0167  0.0273  0.0707  0.0816  0.2807  0.5133
 SCF Error: norm([F,P])=      0.000686182751, max([F,P])=      0.000134595077
 orbitals (Q,E):
[...]
                                   12.41%     1 P:x            -9.020  1.33    12 O
                                   10.04%     1 P:x            -9.020  1.33    13 O
                                    9.88%     1 P:z            -7.062  1.00     7 N
                                    6.58%     1 P:x            -7.062  1.00     7 N
                                    6.09%     1 P:z            -9.020  1.33    11 O
                                    6.07%     1 P:x            -5.239  0.67     1 C
                                    5.89%     1 P:z            -9.020  1.33    10 O
                                    5.05%     1 P:x            -9.020  1.33    10 O
                                    3.69%     1 P:x            -9.020  1.33    11 O
                                    3.50%     1 P:x            -5.239  0.67     2 C
                                    3.20%     1 P:z            -7.062  1.00     9 N
                                    2.20%     3 P:z            -7.716  1.67     3 Br
                                    2.10%     1 P:z            -9.020  1.33    13 O
                                    1.83%     1 P:z            -9.020  1.33    12 O
                                   -1.36%     2 P:x             7.649  0.00     9 N
                                    1.30%     3 P:x            -7.716  1.67     3 Br
                                    1.05%     2 S             -13.620  2.00     1 C
      -2.146  0.00    55 A         14.77%     1 P:x            -5.239  0.67     2 C
                                   14.66%     1 P:x            -5.239  0.67     1 C
                                    8.83%     1 P:x            -7.062  1.00     9 N
                                    8.07%     1 P:z            -5.239  0.67     2 C
                                    5.97%     3 P:x            -7.716  1.67     3 Br
                                    4.80%     1 P:y            -5.239  0.67     1 C
                                    4.72%     1 P:x            -9.020  1.33    13 O
                                    4.64%     1 P:x            -7.062  1.00     8 N
                                    4.23%     1 P:z            -5.239  0.67     1 C
                                    3.59%     2 S             -13.620  2.00     1 C
                                    3.51%     3 P:z            -7.716  1.67     3 Br
                                    3.39%     1 P:x            -7.062  1.00     7 N
                                    2.97%     1 P:x            -9.020  1.33    12 O
                                    2.83%     1 P:z            -7.062  1.00     7 N
                                   -2.76%     2 P:x             4.589  0.00     1 C
                                    2.63%     1 P:x            -9.020  1.33    10 O
                                    1.82%     1 P:z            -9.020  1.33    11 O
                                    1.73%     2 P:z             4.589  0.00     1 C
                                   -1.60%     2 P:x             4.589  0.00     2 C
                                   -1.55%     2 P:x             7.649  0.00     9 N
                                    1.52%     2 S               2.394  0.00     6 H
                                    1.34%     2 D:xz            7.341  0.00     3 Br
                                    1.27%     2 S             -13.620  2.00     2 C
                                    1.24%     2 S               2.394  0.00     4 H
                                    1.09%     1 P:z            -7.062  1.00     9 N
                                    1.04%     1 P:x            -9.020  1.33    11 O
      -0.994  0.00    56 A         42.75%     1 S              -6.532  1.00     6 H
                                   36.87%     2 S               2.394  0.00     6 H
                                   12.27%     2 S               2.394  0.00     5 H
                                    4.87%     1 S              -6.532  1.00     5 H
                                    4.78%     1 S              -6.532  1.00     4 H
                                   -4.33%     2 P:z             7.649  0.00     8 N
                                    3.77%     2 S               2.394  0.00     4 H
                                   -3.27%     2 P:z             4.589  0.00     2 C
                                    3.20%     1 P:z            11.051  0.00     6 H
                                   -3.10%     2 P:y             4.589  0.00     2 C
                                   -2.27%     3 S              10.158  0.00     1 C
                                   -1.90%     3 S              10.158  0.00     2 C
                                    1.76%     2 S             -18.450  2.00     8 N
                                   -1.65%     1 P:y            -5.239  0.67     2 C
                                    1.48%     1 P:y            11.051  0.00     5 H
                                   -1.40%     2 S             -13.620  2.00     2 C
                                    1.21%     2 P:x             4.589  0.00     2 C
                                    1.17%     1 P:x            -5.239  0.67     2 C
                                    1.15%     1 P:z            -7.062  1.00     8 N
       0.118  0.00    57 A         47.87%     1 S              -6.532  1.00     4 H
                                   26.25%     2 S               2.394  0.00     4 H
                                  -17.98%     2 P:y             4.589  0.00     1 C
                                   14.07%     1 S              -6.532  1.00     5 H
                                   11.86%     1 P:y            -5.239  0.67     1 C
                                    7.09%     2 S             -18.450  2.00     9 N
                                    5.75%     2 S               2.394  0.00     5 H
                                   -5.45%     2 P:z             4.589  0.00     1 C
                                    3.60%     1 P:y            -5.239  0.67     2 C
                                   -3.35%     2 P:y             7.649  0.00     8 N
                                    3.24%     2 S             -18.450  2.00     7 N
                                   -2.59%     3 S              14.073  0.00     7 N
                                   -2.36%     2 P:z             4.589  0.00     2 C
                                    1.73%     2 S             -13.620  2.00     2 C
                                    1.72%     2 P:y             7.649  0.00     9 N
                                   -1.63%     1 P:z            -5.239  0.67     1 C
                                    1.62%     1 P:y            -9.020  1.33    13 O
                                    1.57%     1 P:z            -9.020  1.33    12 O
                                   -1.44%     1 P:z            -5.239  0.67     2 C
                                    1.31%     2 S               2.394  0.00     6 H
                                   -1.22%     3 S              14.073  0.00     9 N
                                   -1.16%     3 S              40.869  0.00     4 H
                                   -1.10%     3 S              21.524  0.00    13 O
                                   -1.04%     3 S              10.158  0.00     1 C
       0.456  0.00    58 A         24.99%     1 S              -6.532  1.00     5 H
                                   23.97%     1 S              -6.532  1.00     6 H
                                   22.06%     2 S               2.394  0.00     4 H
                                   13.34%     1 S              -6.532  1.00     4 H
                                   12.28%     2 S               2.394  0.00     5 H
                                  -10.42%     2 P:z             7.649  0.00     8 N
                                    5.10%     2 S             -18.450  2.00     7 N
                                    3.17%     1 P:z            -7.062  1.00     8 N
                                    3.15%     1 P:x            -5.239  0.67     1 C
                                   -3.02%     2 P:y             7.649  0.00     8 N
                                   -2.89%     3 S              10.158  0.00     1 C
                                   -1.87%     3 S              21.524  0.00    11 O
                                   -1.61%     5 S               6.099  0.00     3 Br
                                    1.61%     3 S              40.869  0.00     6 H
                                    1.60%     1 P:y            -9.020  1.33    11 O
                                   -1.48%     2 P:x             4.589  0.00     1 C
                                    1.40%     1 P:y            -5.239  0.67     2 C
                                    1.37%     2 P:z             4.589  0.00     2 C
                                   -1.26%     3 S              21.524  0.00    10 O
                                    1.23%     2 S             -18.450  2.00     9 N



 =======================================================================
 Electrostatic potential at the Nuclei due to electrons and other nuclei
 =======================================================================
  
         Atom                  Potential
         ----                  ---------
     1)   C                  14.65122452
     2)   C                  14.63133480
     3)   Br                180.51369177
     4)   H                   1.02156523
     5)   N                  18.15021206
     6)   O                  22.33327249
     7)   O                  22.33056450
     8)   N                  18.31977056
     9)   H                   0.96174148
    10)   H                   0.95660435
    11)   N                  18.15868712
    12)   O                  22.34438910
    13)   O                  22.34118859
 Mulliken charges used for AMS results%charges...


    =====================
     CALCULATION RESULTS
    =====================

Energy (hartree)            -2.64161969


--------------
Atomic charges
--------------
  Index   Atom    Charge
      1      C    0.2922
      2      C    0.1839
      3     Br   -0.1913
      4      H   -0.0393
      5      N    0.5755
      6      O   -0.3495
      7      O   -0.4047
      8      N    0.1201
      9      H    0.0203
     10      H   -0.0034
     11      N    0.5690
     12      O   -0.3937
     13      O   -0.3792


Dipole moment vector    (Debye):    -0.43451807   -1.89261985    2.12029965
              magnitude (Debye):     2.87514982


-----------------------
Molecular orbitals info
-----------------------
n orbitals:              323
n spin:                    1

Note: only printing virtual orbitals with
      energy smaller than HOMO + 100. eV

Note: fractional orbital occupations. HOMO and LUMO labels are not well defined!

HOMO (eV):              -7.3140
LUMO (eV):              -6.4578
HOMO-LUMO gap (eV):      0.8563

   Index   Energy (eV)    Occupation
     203       92.0968         0.000       
     202       91.4370         0.000       
     201       91.1452         0.000       
     200       90.2537         0.000       
     199       90.1814         0.000       
     198       89.7075         0.000       
     197       88.6969         0.000       
     196       88.4848         0.000       
     195       87.4040         0.000       
     194       86.1460         0.000       
     193       84.5815         0.000       
     192       83.4711         0.000       
     191       82.5078         0.000       
     190       81.8924         0.000       
     189       80.4190         0.000       
     188       80.0538         0.000       
     187       79.2463         0.000       
     186       77.7280         0.000       
     185       76.5816         0.000       
     184       75.7676         0.000       
     183       75.7474         0.000       
     182       74.1332         0.000       
     181       73.4305         0.000       
     180       72.6417         0.000       
     179       71.6513         0.000       
     178       70.6683         0.000       
     177       69.9078         0.000       
     176       69.0873         0.000       
     175       67.2897         0.000       
     174       65.5725         0.000       
     173       64.7791         0.000       
     172       62.9435         0.000       
     171       62.6207         0.000       
     170       61.9653         0.000       
     169       61.2392         0.000       
     168       60.2791         0.000       
     167       58.2703         0.000       
     166       57.6650         0.000       
     165       57.3236         0.000       
     164       56.4860         0.000       
     163       55.8203         0.000       
     162       55.3651         0.000       
     161       54.2428         0.000       
     160       53.1656         0.000       
     159       52.8241         0.000       
     158       51.8781         0.000       
     157       51.7064         0.000       
     156       51.2779         0.000       
     155       50.3389         0.000       
     154       49.6496         0.000       
     153       48.2503         0.000       
     152       47.6228         0.000       
     151       46.4136         0.000       
     150       45.9055         0.000       
     149       45.6388         0.000       
     148       44.3710         0.000       
     147       43.1042         0.000       
     146       42.7408         0.000       
     145       42.0006         0.000       
     144       41.4999         0.000       
     143       40.5850         0.000       
     142       39.3458         0.000       
     141       38.5332         0.000       
     140       37.6819         0.000       
     139       37.2629         0.000       
     138       36.5637         0.000       
     137       36.1868         0.000       
     136       35.9838         0.000       
     135       35.2549         0.000       
     134       34.4997         0.000       
     133       33.9492         0.000       
     132       33.7022         0.000       
     131       33.4136         0.000       
     130       33.3369         0.000       
     129       32.8426         0.000       
     128       31.7462         0.000       
     127       31.5987         0.000       
     126       30.8037         0.000       
     125       30.6174         0.000       
     124       30.0774         0.000       
     123       28.8831         0.000       
     122       28.3318         0.000       
     121       27.9857         0.000       
     120       27.5745         0.000       
     119       27.0307         0.000       
     118       26.8120         0.000       
     117       26.2321         0.000       
     116       25.7427         0.000       
     115       24.6615         0.000       
     114       24.2360         0.000       
     113       24.1180         0.000       
     112       23.9364         0.000       
     111       23.6066         0.000       
     110       22.7802         0.000       
     109       22.2586         0.000       
     108       21.6308         0.000       
     107       20.9909         0.000       
     106       20.3060         0.000       
     105       19.1377         0.000       
     104       18.8800         0.000       
     103       18.4651         0.000       
     102       17.7270         0.000       
     101       17.4398         0.000       
     100       16.7323         0.000       
      99       16.3238         0.000       
      98       15.7023         0.000       
      97       15.3456         0.000       
      96       14.7195         0.000       
      95       14.1955         0.000       
      94       13.6039         0.000       
      93       13.0651         0.000       
      92       12.5338         0.000       
      91       12.0430         0.000       
      90       11.9677         0.000       
      89       11.2490         0.000       
      88       10.9202         0.000       
      87       10.6089         0.000       
      86       10.4752         0.000       
      85       10.0194         0.000       
      84        9.6192         0.000       
      83        9.2620         0.000       
      82        8.6989         0.000       
      81        8.3472         0.000       
      80        7.9889         0.000       
      79        7.4359         0.000       
      78        7.2445         0.000       
      77        7.0910         0.000       
      76        6.9042         0.000       
      75        6.7341         0.000       
      74        6.2687         0.000       
      73        5.8666         0.000       
      72        5.5095         0.000       
      71        5.2734         0.000       
      70        5.2394         0.000       
      69        4.7286         0.000       
      68        4.5307         0.000       
      67        4.2683         0.000       
      66        4.0589         0.000       
      65        3.8728         0.000       
      64        3.6949         0.000       
      63        3.0792         0.000       
      62        2.6301         0.000       
      61        2.2677         0.000       
      60        2.0923         0.000       
      59        0.8566         0.000       
      58        0.4559         0.000       
      57        0.1182         0.000       
      56       -0.9938         0.000       
      55       -2.1461         0.000       
      54       -3.5497         0.000       
      53       -4.6650         0.000       
      52       -6.4578         1.000 < LUMO
      51       -7.3140         2.000 < HOMO
      50       -7.3738         2.000       
      49       -7.5799         2.000       
      48       -7.7839         2.000       
      47       -8.2908         2.000       
      46       -8.3947         2.000       
      45       -8.5121         2.000       
      44       -8.7149         2.000       
      43       -9.5579         2.000       
      42      -10.6774         2.000       
      41      -12.3276         2.000       
      40      -13.1366         2.000       
      39      -13.5318         2.000       
      38      -13.6772         2.000       
      37      -13.9669         2.000       
      36      -14.3979         2.000       
      35      -14.5672         2.000       
      34      -15.0443         2.000       
      33      -15.4687         2.000       
      32      -17.0531         2.000       
      31      -19.7194         2.000       
      30      -20.4964         2.000       
      29      -22.2123         2.000       
      28      -25.1302         2.000       
      27      -27.1406         2.000       
      26      -27.4482         2.000       
      25      -31.6005         2.000       
      24      -31.8731         2.000       
      23      -66.1091         2.000       
      22      -66.1105         2.000       
      21      -66.3872         2.000       
      20      -66.3985         2.000       
      19      -66.4882         2.000       
      18     -172.6905         2.000       
      17     -172.7032         2.000       
      16     -173.0806         2.000       
      15     -236.5967         2.000       
      14     -273.8022         2.000       
      13     -274.3153         2.000       
      12     -384.2436         2.000       
      11     -388.5691         2.000       
      10     -388.8186         2.000       
       9     -513.1473         2.000       
       8     -513.2413         2.000       
       7     -513.4707         2.000       
       6     -513.5090         2.000       
       5    -1526.8282         2.000       
       4    -1526.8323         2.000       
       3    -1526.9614         2.000       
       2    -1729.9604         2.000       
       1   -13296.4545         2.000       

AMS application finished. Exiting.
NORMAL TERMINATION
     Total cpu time:      55.93
  Total system time:       0.42
 Total elapsed time:      56.56
NORMAL TERMINATION with warnings
