srun: Job 663294 step creation still disabled, retrying (Requested nodes are busy)
srun: Job 663294 step creation still disabled, retrying (Requested nodes are busy)
srun: Job 663294 step creation still disabled, retrying (Requested nodes are busy)
srun: Job 663294 step creation still disabled, retrying (Requested nodes are busy)
srun: Job 663294 step creation still disabled, retrying (Requested nodes are busy)
srun: Job 663294 step creation still disabled, retrying (Requested nodes are busy)
srun: Job 663294 step creation still disabled, retrying (Requested nodes are busy)
srun: Job 663294 step creation still disabled, retrying (Requested nodes are busy)
srun: Job 663294 step creation still disabled, retrying (Requested nodes are busy)
srun: Job 663294 step creation still disabled, retrying (Requested nodes are busy)
srun: Job 663294 step creation still disabled, retrying (Requested nodes are busy)
srun: Step created for StepId=663294.43

 *******************************************************************************
 *                                                                             *
 *  --------------------------------                                           *
 *   Amsterdam Modeling Suite (AMS)              2026.103                      *
 *  --------------------------------                                           *
 *                                               r260501 2026-05-01 873454b5   *
 *                                                                             *
 *                                                                             *
 *                              =================                              *
 *                              |               |                              *
 *                              |     A M S     |                              *
 *                              |               |                              *
 *                              =================                              *
 *                                                                             *
 *                                                                             *
 *   Online information and documentation:  https://www.scm.com/support/       *
 *   E-mail:  support@scm.com   info@scm.com                                   *
 *                                                                             *
 *   Scientific publications using AMS results must be properly referenced     *
 *   See the User Manuals (or the web site) for recommended citations          *
 *   The terms and conditions of the End User License Agreement apply to       *
 *   the use of AMS, https://www.scm.com/license-terms/                        *
 *                                                                             *
 **********************  x86_64_linux_intel / intelmpi  ************************
 
 Licensed to: Jong-June Jeon / University of Seoul 2026-06-02 13:44:15
 SCM User ID: u30731
  
 AMS 2026.103  RunTime: Jun04-2026 10:02:37  ShM Nodes: 1  Procs: 1

 AMS jobname: c4_fragA_opt
 AMS jobid  : 757108065

 Start   directory: /gpfs/home1/yeseo1ee/projects/eda-asm-prediction/ADF_800/adf_outputs/batch_003/qmrxn20_e2_A_D_D_D_C_B/
 Results directory: /gpfs/home1/yeseo1ee/projects/eda-asm-prediction/ADF_800/adf_outputs/batch_003/qmrxn20_e2_A_D_D_D_C_B/c4_fragA_opt.results/
 Scratch directory: /tmp/amstmp_c4_fragA_opt_kid0.757108065/

 RNG seed: 1668498080 -263927176 -588391379 159887013 -1874371781 -149768856 -304497028 -1827434717



                      ************************************************************************
                      *  ADF 2026.103  RunTime: Jun04-2026 10:02:38  ShM Nodes: 1  Procs: 1  *
                      ************************************************************************
  

       ***************************
       *  GEOMETRY OPTIMIZATION  *
       ***************************

Optimization Method                    Quasi Newton
Optimization Coordinates               Delocalized Coordinates
Optimize lattice                       F
 
 ------------------------------------------------------
 Convergence criteria (Hartree,Angstrom)
 ------------------------------------------------------
 Maximum gradient               0.000100000000
 Maximum rms gradient           0.000066666667
 Maximum step allowed           0.010000000000
 Maximum rms step allowed       0.006666666667
 Maximum energy change allowe   0.000020000000
 Maximum stress energy allowe   0.000500000000
 
Initial model Hessian                  Automatic Hessian
 
------------------------------------
Quasi-Newton Optimizer Parameters
------------------------------------
Hessian Update Method                  BFGS
Maximum number of steps                  200
First GDIIS cycle                          0
Maximum GDIIS vectors                      0
Trust radius (bohr)                        0.200000
Trust radius varies                        T
Constraints converged at all steps         T
Use projector                              T
 
 Rigid motions settings for: old optimizer
 Atomic rotations (x,y,z):     T T T
 Atomic translations (x,y,z):  T T T
 Tolerance:                  1.000000000000000E-006

--------
Geometry
--------
Formula: FH
Atoms
  Index Symbol   x (angstrom)   y (angstrom)   z (angstrom)
      1      F    -2.59034668     0.41746836     1.56922604
      2      H    -1.37997857     0.07912632     1.39657992

Total System Charge             -1.00000


----------------
ADF Engine Input
----------------
 
   Basis
     Type TZ2P
     Core None
   End
   XC
     GGA BLYP
     Dispersion GRIMME3 BJDAMP
   End
   Symmetry NOSYM
   NumericalQuality Normal
   Unrestricted No
   SCF
     Iterations 200
     Converge 1.0e-6
   End
   Save TAPE21
 

 Title: *** (NO TITLE) ***

 WARNING: Atom coordinates do not satisfy full symmetry (probably due to orientation).
 Using automatic Hessian for delocalized coordinates.
 *** GO1_GOStep1 ***

 Integrated fractional orbital density (NFOD):         1.000

 Energy gradients wrt nuclear displacements
 ==========================================

     Atom      Cartesian (a.u./angstrom)
                 X         Y         Z
 ----------------------------------------
     1 F    -0.043672  0.012239  0.006226
     2 H     0.043672 -0.012239 -0.006226
 ----------------------------------------
 
----------------------------------------------------------------------
Geometry Convergence after Step   1       (Hartree/Angstrom,Angstrom)
----------------------------------------------------------------------
current energy                               -0.21265091 Hartree
energy change                      -0.21265091     0.00002000    F
constrained gradient max            0.04367981     0.00010000    F
constrained gradient rms            0.02643124     0.00006667    F
gradient max                        0.04367981
gradient rms                        0.02643124
cart. step max                      0.01523815     0.01000000    F
cart. step rms                      0.00922081     0.00666667    F
 

--------
Geometry
--------
Formula: FH
Atoms
  Index Symbol   x (angstrom)   y (angstrom)   z (angstrom)
      1      F    -2.57510853     0.41320874     1.56705248
      2      H    -1.39521672     0.08338594     1.39875348

Total System Charge             -1.00000

 *** GO1_GOStep2 ***

 Integrated fractional orbital density (NFOD):         1.000

 Energy gradients wrt nuclear displacements
 ==========================================

     Atom      Cartesian (a.u./angstrom)
                 X         Y         Z
 ----------------------------------------
     1 F    -0.046118  0.012871  0.006589
     2 H     0.046118 -0.012871 -0.006589
 ----------------------------------------

 dE(predicted):    -0.73115E-03, dE(actual):    -0.15436E-02, Trust radius:    0.200000, all in a.u.
 
----------------------------------------------------------------------
Geometry Convergence after Step   2       (Hartree/Angstrom,Angstrom)
----------------------------------------------------------------------
current energy                               -0.21419453 Hartree
energy change                      -0.00154361     0.00002000    F
constrained gradient max            0.04611380     0.00010000    F
constrained gradient rms            0.02790408     0.00006667    F
gradient max                        0.04611380
gradient rms                        0.02790408
cart. step max                      0.05048981     0.01000000    F
cart. step rms                      0.03055206     0.00666667    F
 

--------
Geometry
--------
Formula: FH
Atoms
  Index Symbol   x (angstrom)   y (angstrom)   z (angstrom)
      1      F    -2.52461872     0.39909500     1.55985065
      2      H    -1.44570653     0.09749968     1.40595531

Total System Charge             -1.00000

 *** GO1_GOStep3 ***

 Integrated fractional orbital density (NFOD):         1.000

 Energy gradients wrt nuclear displacements
 ==========================================

     Atom      Cartesian (a.u./angstrom)
                 X         Y         Z
 ----------------------------------------
     1 F    -0.048770  0.013688  0.006906
     2 H     0.048770 -0.013688 -0.006906
 ----------------------------------------

 dE(predicted):    -0.46679E-02, dE(actual):    -0.55414E-02, Trust radius:    0.400000, all in a.u.
 
----------------------------------------------------------------------
Geometry Convergence after Step   3       (Hartree/Angstrom,Angstrom)
----------------------------------------------------------------------
current energy                               -0.21973594 Hartree
energy change                      -0.00554141     0.00002000    F
constrained gradient max            0.04877751     0.00010000    F
constrained gradient rms            0.02951592     0.00006667    F
gradient max                        0.04877751
gradient rms                        0.02951592
cart. step max                      0.10097962     0.01000000    F
cart. step rms                      0.06110412     0.00666667    F
 

--------
Geometry
--------
Formula: FH
Atoms
  Index Symbol   x (angstrom)   y (angstrom)   z (angstrom)
      1      F    -2.42363910     0.37086751     1.54544698
      2      H    -1.54668615     0.12572717     1.42035898

Total System Charge             -1.00000

 *** GO1_GOStep4 ***

 Integrated fractional orbital density (NFOD):         1.000

 Energy gradients wrt nuclear displacements
 ==========================================

     Atom      Cartesian (a.u./angstrom)
                 X         Y         Z
 ----------------------------------------
     1 F     0.085185 -0.023736 -0.012186
     2 H    -0.085185  0.023736  0.012186
 ----------------------------------------

 dE(predicted):    -0.10230E-01, dE(actual):    -0.27974E-02, Trust radius:    0.400000, all in a.u.
 
----------------------------------------------------------------------
Geometry Convergence after Step   4       (Hartree/Angstrom,Angstrom)
----------------------------------------------------------------------
current energy                               -0.22253329 Hartree
energy change                      -0.00279736     0.00002000    F
constrained gradient max            0.08516999     0.00010000    F
constrained gradient rms            0.05153750     0.00006667    F
gradient max                        0.08516999
gradient rms                        0.05153750
cart. step max                      0.06420749     0.01000000    F
cart. step rms                      0.03885281     0.00666667    F
 

--------
Geometry
--------
Formula: FH
Atoms
  Index Symbol   x (angstrom)   y (angstrom)   z (angstrom)
      1      F    -2.48784659     0.38881585     1.55460549
      2      H    -1.48247866     0.10777883     1.41120047

Total System Charge             -1.00000

 *** GO1_GOStep5 ***

 Integrated fractional orbital density (NFOD):         1.000

 Energy gradients wrt nuclear displacements
 ==========================================

     Atom      Cartesian (a.u./angstrom)
                 X         Y         Z
 ----------------------------------------
     1 F    -0.036001  0.010043  0.005153
     2 H     0.036001 -0.010043 -0.005153
 ----------------------------------------

 dE(predicted):    -0.60071E-02, dE(actual):    -0.92403E-03, Trust radius:    0.400000, all in a.u.
 
----------------------------------------------------------------------
Geometry Convergence after Step   5       (Hartree/Angstrom,Angstrom)
----------------------------------------------------------------------
current energy                               -0.22345733 Hartree
energy change                      -0.00092403     0.00002000    F
constrained gradient max            0.03599827     0.00010000    F
constrained gradient rms            0.02178303     0.00006667    F
gradient max                        0.03599827
gradient rms                        0.02178303
cart. step max                      0.01907561     0.01000000    F
cart. step rms                      0.01154291     0.00666667    F
 

--------
Geometry
--------
Formula: FH
Atoms
  Index Symbol   x (angstrom)   y (angstrom)   z (angstrom)
      1      F    -2.46877098     0.38348352     1.55188456
      2      H    -1.50155427     0.11311116     1.41392140

Total System Charge             -1.00000

 *** GO1_GOStep6 ***

 Integrated fractional orbital density (NFOD):         1.000

 Energy gradients wrt nuclear displacements
 ==========================================

     Atom      Cartesian (a.u./angstrom)
                 X         Y         Z
 ----------------------------------------
     1 F    -0.018268  0.005036  0.002649
     2 H     0.018268 -0.005036 -0.002649
 ----------------------------------------

 dE(predicted):    -0.75432E-03, dE(actual):    -0.12660E-02, Trust radius:    0.400000, all in a.u.
 
----------------------------------------------------------------------
Geometry Convergence after Step   6       (Hartree/Angstrom,Angstrom)
----------------------------------------------------------------------
current energy                               -0.22472334 Hartree
energy change                      -0.00126602     0.00002000    F
constrained gradient max            0.01825563     0.00010000    F
constrained gradient rms            0.01104673     0.00006667    F
gradient max                        0.01825563
gradient rms                        0.01104673
cart. step max                      0.01962714     0.01000000    F
cart. step rms                      0.01187665     0.00666667    F
 

--------
Geometry
--------
Formula: FH
Atoms
  Index Symbol   x (angstrom)   y (angstrom)   z (angstrom)
      1      F    -2.44914384     0.37799701     1.54908496
      2      H    -1.52118141     0.11859767     1.41672100

Total System Charge             -1.00000

 *** GO1_GOStep7 ***

 Integrated fractional orbital density (NFOD):         1.000

 Energy gradients wrt nuclear displacements
 ==========================================

     Atom      Cartesian (a.u./angstrom)
                 X         Y         Z
 ----------------------------------------
     1 F     0.013531 -0.003766 -0.001959
     2 H    -0.013531  0.003766  0.001959
 ----------------------------------------

 dE(predicted):    -0.39359E-03, dE(actual):    -0.25773E-03, Trust radius:    0.400000, all in a.u.
 
----------------------------------------------------------------------
Geometry Convergence after Step   7       (Hartree/Angstrom,Angstrom)
----------------------------------------------------------------------
current energy                               -0.22498107 Hartree
energy change                      -0.00025773     0.00002000    F
constrained gradient max            0.01353051     0.00010000    F
constrained gradient rms            0.00818749     0.00006667    F
gradient max                        0.01353051
gradient rms                        0.00818749
cart. step max                      0.00835475     0.01000000    T
cart. step rms                      0.00505557     0.00666667    T
 

--------
Geometry
--------
Formula: FH
Atoms
  Index Symbol   x (angstrom)   y (angstrom)   z (angstrom)
      1      F    -2.45749859     0.38033247     1.55027667
      2      H    -1.51282666     0.11626221     1.41552929

Total System Charge             -1.00000

 *** GO1_GOStep8 ***

 Integrated fractional orbital density (NFOD):         1.000

 Energy gradients wrt nuclear displacements
 ==========================================

     Atom      Cartesian (a.u./angstrom)
                 X         Y         Z
 ----------------------------------------
     1 F    -0.001978  0.000521  0.000284
     2 H     0.001978 -0.000521 -0.000284
 ----------------------------------------

 dE(predicted):    -0.12418E-03, dE(actual):    -0.59355E-04, Trust radius:    0.400000, all in a.u.
 
----------------------------------------------------------------------
Geometry Convergence after Step   8       (Hartree/Angstrom,Angstrom)
----------------------------------------------------------------------
current energy                               -0.22504042 Hartree
energy change                      -0.00005936     0.00002000    F
constrained gradient max            0.00196975     0.00010000    F
constrained gradient rms            0.00119192     0.00006667    F
gradient max                        0.00196975
gradient rms                        0.00119192
cart. step max                      0.00106171     0.01000000    T
cart. step rms                      0.00064245     0.00666667    T
 

--------
Geometry
--------
Formula: FH
Atoms
  Index Symbol   x (angstrom)   y (angstrom)   z (angstrom)
      1      F    -2.45643688     0.38003569     1.55012523
      2      H    -1.51388837     0.11655899     1.41568073

Total System Charge             -1.00000

 *** GO1_GOStep9 ***

 Integrated fractional orbital density (NFOD):         1.000

 Energy gradients wrt nuclear displacements
 ==========================================

     Atom      Cartesian (a.u./angstrom)
                 X         Y         Z
 ----------------------------------------
     1 F    -0.000179  0.000025  0.000021
     2 H     0.000179 -0.000025 -0.000021
 ----------------------------------------

 dE(predicted):    -0.22973E-05, dE(actual):    -0.78803E-05, Trust radius:    0.400000, all in a.u.
 
----------------------------------------------------------------------
Geometry Convergence after Step   9       (Hartree/Angstrom,Angstrom)
----------------------------------------------------------------------
current energy                               -0.22504830 Hartree
energy change                      -0.00000788     0.00002000    T
constrained gradient max            0.00017177     0.00010000    F
constrained gradient rms            0.00010394     0.00006667    F
gradient max                        0.00017177
gradient rms                        0.00010394
cart. step max                      0.00010143     0.01000000    T
cart. step rms                      0.00006138     0.00666667    T
 

--------
Geometry
--------
Formula: FH
Atoms
  Index Symbol   x (angstrom)   y (angstrom)   z (angstrom)
      1      F    -2.45633545     0.38000733     1.55011077
      2      H    -1.51398980     0.11658735     1.41569519

Total System Charge             -1.00000

 *** GO1_GOStep10 ***

 Integrated fractional orbital density (NFOD):         1.000

 Energy gradients wrt nuclear displacements
 ==========================================

     Atom      Cartesian (a.u./angstrom)
                 X         Y         Z
 ----------------------------------------
     1 F    -0.000004 -0.000023 -0.000005
     2 H     0.000004  0.000023  0.000005
 ----------------------------------------
 
---------------------------------------------------------
Geometry Convergence after Step  10       ** CONVERGED **
---------------------------------------------------------
current energy                               -0.22504884 Hartree
energy change                      -0.00000053     0.00002000    T
constrained gradient max            0.00000318     0.00010000    T
constrained gradient rms            0.00000192     0.00006667    T
gradient max                        0.00000318
gradient rms                        0.00000192
cart. step max                      0.00000184     0.01000000    T
cart. step rms                      0.00000112     0.00666667    T
 
Geometry optimization converged

Optimized geometry:

--------
Geometry
--------
Formula: FH
Atoms
  Index Symbol   x (angstrom)   y (angstrom)   z (angstrom)
      1      F    -2.45633545     0.38000733     1.55011077
      2      H    -1.51398980     0.11658735     1.41569519

Total System Charge             -1.00000

Performing a single point calculation on the final geometry ...

 *** adf ***



 ===========================
 A T T A C H E D   F I L E S
 ===========================
  
 Restart/tmp/amstmp_c4_fragA_opt_kid0.757108065/GO1_GOStep10.rkf*** GO1_GOStep10 ***



 ===============================
 M O D E L   P A R A M E T E R S
 ===============================
  
 DENSITY FUNCTIONAL POTENTIAL (scf)
    LDA:                               Exchange only                           == Not Default ==
    Gradient Corrections:              Becke88 LYP                             == Not Default ==

 SPIN  (restricted / unrestr.)
    Molecule:                          Restricted                               
    Fragments:                         Restricted                               

 OTHER ASPECTS
    Relativistic Corrections:          scalar (ZORA,MAPA)                       

    Nuclear Charge Density Model:      Point Charge Nuclei                      
    Core Treatment:                    Frozen Orbital(s)                        

    Hyperfine or Zeeman Interaction:   ---                                      

 Settings for Grimme D3 dispersion correction

      damping                        BJ
      s6                          1.000
      s8                          2.700
      a1                          0.430
      a2                          4.236

 Other (technical) parameters

      alpha                      14.000
      version                         4
 



 ===============
 G E O M E T R Y  ***  Linear Molecule  ***
 ===============
  

 ATOMS
 =====                            X Y Z                    CHARGE
                                (Angstrom)             Nucl     +Core       At.Mass
                       --------------------------    ----------------       -------
    1  F              -2.4563    0.3800    1.5501      9.00      9.00       18.9984
    2  H              -1.5140    0.1166    1.4157      1.00      1.00        1.0078


 FRAGMENTS
 =========                                     Atoms in this Fragment     Cart. coord.s (Angstrom)
                                               -------------------------------------------------------
    1  F                                                 1  F           -2.4563    0.3800    1.5501
    2  H                                                 2  H           -1.5140    0.1166    1.4157


 Interatomic Distance Matrix (Angstrom)
 --------------------------------------

   1)     0.000
   2)     0.988   0.000



 =====================================
 S Y M M E T R Y ,   E L E C T R O N S
 =====================================
  
 Symmetry: NOSYM

 Irreducible Representations, including subspecies
 -------------------------------------------------
 A


 Configuration of Valence Electrons
 ==================================
 ( determined in the SCF procedure )

 Total:   11

 ===============
 W A R N I N G :
 ===============

 The number of electrons does not correspond to doubly occupied orbitals,
 i.e. there would be one orbital with 0.5-alpha and 0.5-beta electrons.

 Normally, this corresponds to a doublet that should be treated within
 the UNRESTRICTED framework. For example, for a doublet:

   CHARGE  -1.0 1.0
   Unrestricted

 See the online manual (http://www.scm.com) for more information on
 how to use the UNRESTRICTED framework.

 If you are definitely certain that for this job the restricted open-shell
 is appropriate, you can overcome this warning by placing on input:
   ALLOW ROKS

 In case of doubt, contact support@scm.com with this problem.

 Net Charge: -1 (Nuclei minus Electrons)

 Aufbau principle for MO occupations will be applied through SCF cycle no.     100
 Thereafter, the program will assign electrons to MOs that are spatially
 similar to the occupied MOs in a "reference" cycle ("KeepOrbitals").
 The reference cycle is always the PREVIOUS cycle: it will evolve with
 the SCF procedure.
 ***************************************************************************************************



                                      ****************************************
                                      *  B U I L D : (Fragments, Functions)  *
                                      ****************************************
  



 =======
 S F O s  ***  (Symmetrized Fragment Orbitals)  ***
 =======
  
 SFOs are linear combinations of (valence) Fragment Orbitals (FOs), such that the SFOs transform as the
 irreducible representations of the (molecular) symmetry group. Each SFO is therefore characterized by
 an irrep of the molecule and by a few (or only one) generating FOs.
 The SFOs constitute a symmetry-adapted basis for the Fock matrix. The MO eigenvector coefficients in
 this basis provide a direct interpretation of the MOs in terms of Frontier Orbital Theory.

 The SFOs are combined with auxiliary Core Functions (CFs) to ensure orthogonalization on the (frozen)
 Core Orbitals (COs). The Core-orthogonalized SFOs (CSFOs) constitute the true Fock basis.

 The FOs, and hence also the (C)SFOs are combinations of the elementary basis functions (BAS). The basis
 functions that participate in the description of the SFOs depend on the irrep. The indices of the
 involved functions are printed below for each irrep.
 (The complete list of primitive basis functions is printed in another section)

 Total nr. of (C)SFOs (summation over all irreps) :    37

 NOTE: a (C)SFO that is defined as a combination of more than one FO is usually NOT normalized.



                                       === A ===
 Nr. of SFOs :   37
 Cartesian basis functions that participate in this irrep (total number =    42) :
      1     2     3     4     5     6     9    12     7    10
     13     8    11    14    15    16    17    18    19    20
     21    22    23    24    25    26    27    28    29    30
     31    32    33    34    35    36    37    38    39    40
     41    42

    SFO  (index         Fragment          Generating    Expansion in Fragment Orbitals
  indx  incl.CFs)   Occup   Orb.Energy   FragmentType  Coeff.   Orbital     on Fragment
 --------------------------------------------------------------------------------------
     1       1      2.000     -24.402 au  F             1.00      1 S               1
                        (    -664.014 eV)
     2       2      2.000      -1.095 au  F             1.00      2 S               1
                        (     -29.785 eV)
     3       3       --         0.023 au  F             1.00      3 S               1
                        (       0.624 eV)
     4       4       --         1.576 au  F             1.00      4 S               1
                        (      42.880 eV)
     5       5       --        47.803 au  F             1.00      5 S               1
                        (    1300.785 eV)
     6       6      1.667      -0.409 au  F             1.00      1 P:x             1
                        (     -11.127 eV)
     7       7       --         0.428 au  F             1.00      2 P:x             1
                        (      11.654 eV)
     8       8       --         4.556 au  F             1.00      3 P:x             1
                        (     123.977 eV)
     9       9      1.667      -0.409 au  F             1.00      1 P:y             1
                        (     -11.127 eV)
    10      10       --         0.428 au  F             1.00      2 P:y             1
                        (      11.654 eV)
    11      11       --         4.556 au  F             1.00      3 P:y             1
                        (     123.977 eV)
    12      12      1.667      -0.409 au  F             1.00      1 P:z             1
                        (     -11.127 eV)
    13      13       --         0.428 au  F             1.00      2 P:z             1
                        (      11.654 eV)
    14      14       --         4.556 au  F             1.00      3 P:z             1
                        (     123.977 eV)
    15      15       --         1.117 au  F             1.00      1 D:z2            1
                        (      30.390 eV)
    16      16       --         1.117 au  F             1.00      1 D:x2-y2         1
                        (      30.390 eV)
    17      17       --         1.117 au  F             1.00      1 D:xy            1
                        (      30.390 eV)
    18      18       --         1.117 au  F             1.00      1 D:xz            1
                        (      30.390 eV)
    19      19       --         1.117 au  F             1.00      1 D:yz            1
                        (      30.390 eV)
    20      20       --         3.416 au  F             1.00      1 F:z3            1
                        (      92.949 eV)
    21      21       --         3.416 au  F             1.00      1 F:z             1
                        (      92.949 eV)
    22      22       --         3.416 au  F             1.00      1 F:xyz           1
                        (      92.949 eV)
    23      23       --         3.416 au  F             1.00      1 F:z2x           1
                        (      92.949 eV)
    24      24       --         3.416 au  F             1.00      1 F:z2y           1
                        (      92.949 eV)
    25      25       --         3.416 au  F             1.00      1 F:x             1
                        (      92.949 eV)
    26      26       --         3.416 au  F             1.00      1 F:y             1
                        (      92.949 eV)
    27      27      1.000      -0.240 au  H             1.00      1 S               2
                        (      -6.532 eV)
    28      28       --         0.088 au  H             1.00      2 S               2
                        (       2.394 eV)
    29      29       --         1.502 au  H             1.00      3 S               2
                        (      40.869 eV)
    30      30       --         0.406 au  H             1.00      1 P:x             2
                        (      11.051 eV)
    31      31       --         0.406 au  H             1.00      1 P:y             2
                        (      11.051 eV)
    32      32       --         0.406 au  H             1.00      1 P:z             2
                        (      11.051 eV)
    33      33       --         2.569 au  H             1.00      1 D:z2            2
                        (      69.917 eV)
    34      34       --         2.569 au  H             1.00      1 D:x2-y2         2
                        (      69.917 eV)
    35      35       --         2.569 au  H             1.00      1 D:xy            2
                        (      69.917 eV)
    36      36       --         2.569 au  H             1.00      1 D:xz            2
                        (      69.917 eV)
    37      37       --         2.569 au  H             1.00      1 D:yz            2
                        (      69.917 eV)



 ================================
 (Slater-type)  F U N C T I O N S  ***  (Basis and Fit)  ***
 ================================
  

 Atom Type    1  (F)
 ==============

 Valence Basis Sets:  10
 -----------------------
   1 S   10.880000
   1 S    7.700000
   2 S    3.240000
   2 S    1.940000
   2 S    0.740000
   2 P    4.540000
   2 P    2.300000
   2 P    1.240000
   3 D    2.000000
   4 F    3.000000

 Atom Type    2  (H)
 ==============

 Valence Basis Sets:   5
 -----------------------
   1 S    0.690000
   1 S    0.920000
   1 S    1.580000
   2 P    1.250000
   3 D    2.500000


 BAS: List of all Elementary Cartesian Basis Functions
 =====================================================

 The numbering in the list below (to the right of the function characteristics) is referred
 to in print-outs of MO eigenvectors and Mulliken populations in the BAS representation
 (as contrasted to the SFO representation).

 Notes:
 1. The functions are characterized by a polynomial prefactor (powers of x,y,z and r) and
    an exponential decay factor alpha.
 2. Since the basis sets are specific for an atom TYPE, the individual functions occur on
    all atoms of that type.
 3. The word 'Core' in the left margin signals that it is a Core Function (CF) : not a
    degree of freedom in the valence set, but only used to ensure orthogonalization of
    the other valence basis functions on the frozen Core Orbitals.


 (power of) X  Y  Z  R     Alpha  on Atom
            ==========     =====     ==========

 F                                    1
                                  ---------------------------------------------------------------------------
            0  0  0  0    10.880      1
            0  0  0  0     7.700      2
            0  0  0  1     3.240      3
            0  0  0  1     1.940      4
            0  0  0  1     0.740      5
            1  0  0  0     4.540      6
            0  1  0  0     4.540      7
            0  0  1  0     4.540      8
            1  0  0  0     2.300      9
            0  1  0  0     2.300     10
            0  0  1  0     2.300     11
            1  0  0  0     1.240     12
            0  1  0  0     1.240     13
            0  0  1  0     1.240     14
            2  0  0  0     2.000     15
            1  1  0  0     2.000     16
            1  0  1  0     2.000     17
            0  2  0  0     2.000     18
            0  1  1  0     2.000     19
            0  0  2  0     2.000     20
            3  0  0  0     3.000     21
            2  1  0  0     3.000     22
            2  0  1  0     3.000     23
            1  2  0  0     3.000     24
            1  1  1  0     3.000     25
            1  0  2  0     3.000     26
            0  3  0  0     3.000     27
            0  2  1  0     3.000     28
            0  1  2  0     3.000     29
            0  0  3  0     3.000     30

 H                                    2
                                  ---------------------------------------------------------------------------
            0  0  0  0     0.690     31
            0  0  0  0     0.920     32
            0  0  0  0     1.580     33
            1  0  0  0     1.250     34
            0  1  0  0     1.250     35
            0  0  1  0     1.250     36
            2  0  0  0     2.500     37
            1  1  0  0     2.500     38
            1  0  1  0     2.500     39
            0  2  0  0     2.500     40
            0  1  1  0     2.500     41
            0  0  2  0     2.500     42

 Total number of charge fitting functions (nprimf)       135
 Total number of Cartesian basis functions (naos)         42
 Total number of Cartesian core functions  (ncos)          0

 ***************************************************************************************************



                                              ***********************
                                              *  T E C H N I C A L  *
                                              ***********************
  



 =============================================================
 P A R A L L E L I Z A T I O N  and  V E C T O R I Z A T I O N
 =============================================================
  
 Nr of parallel processes:                                1
 Maximum vector length in NumInt loops:                 128



 =====================
 S C F   U P D A T E S
 =====================
  
 Max. nr. of cycles:                               200
 Convergence criterion:                              0.0000010000
   secondary criterion:                              0.0010000000

 Mix parameter (when DIIS does not apply):           0.2000000000
 Mixed ADIIS+SDIIS will be used                  
    Max number of expansion vectors:                10
    Pure ADIIS when Max([F,P]) is above              0.1000000000
    Pure SDIIS when Max([F,P]) is below              0.0010000000
 Automatic ElectronSmearing (in case of problematic SCF convergence) disabled



 =================
 P R E C I S I O N  ***  (General: NumInt, NeglectFunctionTails, ...)  ***
 =================
  

 NumInt:           Target precision:                 4.0000000000
 -------           Initial precision:                4.0000000000
                   Min. precision (optimization):    4.0000000000

 Neglect Functions:          Basis functions:        0.1000000000E-05
 ------------------          Fit functions:          0.1000000000E-05



 ===========================
 L I N E A R   S C A L I N G
 ===========================
  

 Cut-off radii density fit:                        0.1000000000E-07
 Overlap cut-off criterion AO matrix elements:     0.1000000000E-05
 Cut-offs for Coulomb potential and fitted density:0.1000000000E-07
 Cut-off criterion for Coulomb multipole terms:    0.1000000000E-07
 Progressive Convergence parameter:                 0.000000000    

 Number of elements of the density matrix on this node (used, total):       903       903



 ===========================================
 Numerical Integration : Fuzzy Cells (Becke)
 ===========================================
  
 Becke grid quality: NORMAL         
  
 Lebedev angular grid order:             min:  11 max:  23
 Nr. of radial points:                   min:  46 max:  55

 Total nr. of points:      13388
 Nr. of blocks:              105
 Block length:               128
 Nr. of dummy points:         52


 Test of Precision of the Numerical Integration Grid
 ===================================================

 Integral of the Total Core Density:                   0.00000000000000



 ========================
 Density Fitting (zlmFit)
 ========================
  
 ZlmFit Fit Quality: NORMAL         
  
 Max L-expansion:                        min:   6 max:   7
 Nr. of radial interpolation points:     min:  39 max:  51



 =====
 S C F  ***  ScaSCF  ***
 =====
  
 Initial density matrix is taken from previous geometry

 CYCLE    1
  ***********************************************************
  ** : orbital data taken from :/tmp/amstmp_c4_fragA_opt_kid0.757108065/GO1_GOStep10.rkf
  ***********************************************************
 SCF Error: norm([F,P])=      0.000000003888, max([F,P])=      0.000000001374
 orbitals (Q,E):
 ---------------
 A :1...16           ( 2.00   -24.0375)  ( 2.00    -0.8161)  ( 2.00    -0.2177)  ( 2.00    -0.0906)
                     ( 2.00    -0.0906)  ( 1.00     0.1576)  ( 0.00     0.2369)  ( 0.00     0.4092)
                     ( 0.00     0.6434)  ( 0.00     0.6434)  ( 0.00     0.8452)  ( 0.00     0.8789)
                     ( 0.00     0.8789)  ( 0.00     1.0233)  ( 0.00     1.3878)  ( 0.00     1.3878)

 CYCLE    2
   MIX coefficients:  0.8000  0.2000
 SCF Error: norm([F,P])=      0.000000005915, max([F,P])=      0.000000002173
 orbitals (Q,E):
 ---------------
 A :1...7            ( 2.00   -24.0375)  ( 2.00    -0.8161)  ( 2.00    -0.2177)  ( 2.00    -0.0906)
                     ( 2.00    -0.0906)  ( 1.00     0.1576)  ( 0.00     0.2369)

 SCF CONVERGED

 CYCLE    3
 ***************************************************************************************************



                                                *******************
                                                *  R E S U L T S  *
                                                *******************
  
 *** Using FIT density in Focky
   MIX coefficients:  0.8000  0.2000
 SCF Error: norm([F,P])=      0.000000002698, max([F,P])=      0.000000000919

 Scaled ZORA Orbital Energies, per Irrep and Spin:
 =================================================
                        Occup              E (au)              E (eV)       Diff (eV) with prev. cycle
                        -----      --------------------        ------       --------------------------
 A
               1        2.000     -0.24037454379064E+02      -654.092              -1.19E-07
               2        2.000     -0.81607310556423E+00       -22.206              -6.14E-08
               3        2.000     -0.21773443814844E+00        -5.925              -5.34E-08
               4        2.000     -0.90587291953001E-01        -2.465              -5.33E-08
               5        2.000     -0.90566873274843E-01        -2.464              -5.33E-08
               6        1.000      0.15763311033855E+00         4.289              -2.07E-08
               7        0.000      0.23692201575688E+00         6.447
               8        0.000      0.40921034732180E+00        11.135
               9        0.000      0.64338278063548E+00        17.507
              10        0.000      0.64338856610186E+00        17.507
              11        0.000      0.84515945243969E+00        22.998
              12        0.000      0.87892955416800E+00        23.917
              13        0.000      0.87894982035837E+00        23.917
              14        0.000      0.10233275481112E+01        27.846
              15        0.000      0.13878240541213E+01        37.765
              16        0.000      0.13878327980595E+01        37.765


 Partially Occupied:
               6 A                 0.15763311033855E+00
  
 HOMO :        5 A                -0.90566873274843E-01
 LUMO :        7 A                 0.23692201575688E+00
  


 All Electron Calculation, thus no Orbital Energies of the Core Orbitals are calculated

 Integrated fractional orbital density (NFOD):         1.000


 Fit test: (difference of exact and fit density, squared integrated, result summed over spins)
         Sum-of-Fragments:                             0.00000000076356
         Orthogonalized Fragments:                     0.00000731804272
         SCF:                                          0.00001538022396



 ==========================
 Electron Density at Nuclei
 ==========================
  
 The electron density is calculated at points on a small sphere around the center of a nucleus.
 The printed electron density is the average electron density on these points.
 The radius of the sphere is the printed approximate finite nuclear radius.
 Note: ZORA-4 density is used, which includes small component density

         Atom        Nuclear Radius (Angstrom)             Electron Density (a.u.)
         ----        -------------------------             -----------------------
     1)   F                 0.0000361580                              450.82721
     2)   H                 0.0000181514                                0.41634



 =======================================
 M U L L I K E N   P O P U L A T I O N S
 =======================================
  
 The survey below gives for each atom:
 a) the total charge (Z minus electrons)
 b) the net spin polarization (nr of electrons spin-A minus spin-B)
 c) for each spin the atomic electron valence density (integrated) per L-value.

 Atom              Charge    Spin density          S         P         D         F
 ----              ------    ------------       ------    ------    ------    ------
 1 F              -0.6872                       4.0844    5.5767    0.0232    0.0029
 2 H              -0.3128                       1.1167    0.1839    0.0122    0.0000

 Populations of individual BAS functions
 ----------------------------------------
 1 F            0.5914  1.3836  1.1038  0.8471  0.1585  0.3373  0.4077  0.4121  0.8901  0.9705
                0.9755  0.4497  0.5633  0.5704  0.0415  0.0049  0.0020 -0.0117  0.0002 -0.0136
                0.0154  0.0080  0.0071 -0.0064  0.0001 -0.0075 -0.0050 -0.0013 -0.0021 -0.0054
 2 H            2.7164 -2.2164  0.6167  0.1107  0.0389  0.0344  0.0066  0.0031  0.0022  0.0001
                0.0002  0.0000

 Gross Charges per Atom (Z minus electrons)
 ==========================================
            -0.6872   -0.3128
 Net Total: -1.00000000


 Atom-Atom Population Matrix (off-diagonal elements not doubled)
 ===============================================================

     1 :     9.2240
     2 :     0.4632    0.8495



 =================================================
 H I R S H F E L D   C H A R G E   A N A L Y S I S
 =================================================
  
 For each fragment: the (numerical) integral of rho(scf) * rho(fragment)/rho(sum-of-fragments)
 (nuclear charges are included, electrons are counted negative)

 The fragments and their ordering are defined in the early G E O M E T R Y output section.
 If you use single-atom fragments, this usually implies that all atoms of the same
 chemical type are grouped together. This may not be the order in which you listed them
 in the input file!

  Fragment                       Charge
 ------------------------------------------
    1  F                        -0.5227
    2  H                        -0.4773

 Sum of these charges =         -0.99999681
 (accuracy NumInt/Tails)



 =============================
 V O R O N O I   C H A R G E S
 =============================
  
 For each atom: the (numerical) integral of the total electronic charge density in its Voronoi cell,
 i.e. the region of space that is closer to that atom than to any other atom.
 (cf. Wigner-Seitz cells in crystals)

 Within the Voronoi cell the subintegrals over the atomic sphere and the remaining part are evaluated
 separately to give the numbers of electrons (negative charge) in these regions.
 The net total charge in the cell (including the nuclear charge) is also given.

 Values are provided for
    a) the Initial (sum-of-fragments) density
    b) the Orthogonalized-Fragments density
    c) the SCF density
    d) the Voronoi Deformation Density (VDD): the difference SCF-Initial for the complete atomic cell

  Atom                Initial                    OrthFrag                   SCF
             Sphere RestCell NetTotal   Sphere RestCell NetTotal   Sphere RestCell NetTotal      VDD
 -------     ------------------------   ------------------------   ------------------------    -----
    1 F      -3.057   -5.532    0.411   -3.118   -5.552    0.329   -3.068   -6.049   -0.116   -0.527
    2 H      -0.079   -1.333   -0.411   -0.077   -1.253   -0.329   -0.087   -1.797   -0.884   -0.473
 ---------------------------------------------------------------------------------------------------
 Total NetCharge:               0.000                      0.000                     -1.000   -1.000
 (accuracy NumInt/Tails)

 Remark: the 'NetTotal' Voronoi charges often do not match the Mulliken and/or Hirshfeld charges very
 well. This is caused by the fact that chemically different atoms are not treated in accordance with
 their relative sizes. (Voronoi cells are defined by boundary planes halfway between the atoms.)
 However, the CHANGES in charge, comparing 'Initial' to 'SCF' for instance, do give a fair indication
 of the flow of charge caused by the relaxation from sum-of-fragments to self-consistency.

 Warning: the absolute accuracy of the VDD charges obtained using the Fuzzy Cells (Becke) integration
 scheme is much poorer than the one obtained with an 'equivalent' Voronoi integration grid. 



 =================================================================
 M U L T I P O L E   D E R I V E D   C H A R G E   A N A L Y S I S
 =================================================================

 This charge analysis uses the atomic multipoles (obtained from the fitted density) up to some level X,
 and reconstructs these multipoles exactly (up to level X) by distributing charges over all atoms.
 This is achieved by using Lagrange multipliers and a weight function to keep the multipoles local.

 Dummy atoms can be included (by setting INCDUM in MDC-block to 1) to obtain a fractional charge.
 This is generally useful and necessary only for small symmetrical molecules, when there are not
 enough degrees of freedom to reconstruct the multipoles.

 Since the atomic multipoles are reconstructed up to level X,
 the molecular multipoles are represented also up to level X.
 The recommended level is to reconstruct up to quadrupole : -> MDC-q charges.

 See: M. Swart, P.Th. van Duijnen, J.G. Snijders, J.Comput.Chem., (2001), p. 79-88.

 ------------------------------------------------------------- 
 Atomic electronic multipole moments from SCF equations (a.u.)
 ------------------------------------------------------------- 

   atom        charge        dip-x     dip-y     dip-z      quad-xx   quad-xy   quad-xz   quad-yy   quad-yz   quad-zz
 --------------------------------------------------------------------------------------------------------------------
    1 F     -0.729023    -0.031195  0.008733  0.004409     1.449296 -0.425988 -0.217380 -0.658703  0.060789 -0.790593
    2 H     -0.270977    -0.728732  0.203640  0.103968    -0.331668  0.097606  0.049701  0.150691 -0.013839  0.180977

 --------------------------------------- 
 Multipole derived atomic charges (a.u.)
 --------------------------------------- 

 The MDC-m charges are just the Monopole terms in the multipole expansion, while for the MDC-d charges
 also the Dipoles are reconstructed. The usually preferred charges are the MDC-q charges.
 These reconstruct the Monopoles, Dipoles and Quadrupoles (both atomic AND molecular).

        Atom    Level:     MDC-m        MDC-d        MDC-q
 ---------------------------------------------------------
     1     F           -0.729023    -0.302293    -1.048445
     2     H           -0.270977    -0.697707     0.048445

 ------------------------------------------------ 
 Average absolute deviations in atomic multipoles
 ------------------------------------------------ 

 Stated here are the average differences between the atomic multipoles
 and the reconstructed atomic multipoles (from the distributed charges).
 If these values are not zero, this means there are not enough degrees of freedom,
 to be able to reconstruct the atomic multipoles. (This usually happens only
 for small and/or highly symmetric molecules). If this is the case, one could add
 dummy atoms as extra point charges (and setting INCDUM in MDC-block to 1).

 Level:                                 MDC-d        MDC-q
 ---------------------------------------------------------
 Charge   (a.u.)                       0.0000       0.0000
 Dipole   (Debye)                      0.0001       0.8005
 Quad.    (a.u.)                       0.6255       0.1665

 --------------------------------------- 
 Represented molecular multipole moments
 --------------------------------------- 

 Given here are the Molecular multipole moments from the atomic charges, and from the Fit Density.
 Note that the atomic charges represent the latter, NOT the ones from the Exact density.

            Q (a.u.)             Dipole moment (Debye)                                          Quadrupole moment (a.u.)
                                 x         y         z              xx        xy        xz        yy        yz        zz
------------------------------------------------------------------------------------------------------------------------
MDC-m        -1.0000       10.5718   -1.4824   -7.2705        -13.6338    3.9013   17.9801   12.6713   -2.5399    0.9625
MDC-d        -1.0000        8.6403   -0.9425   -6.9950         -8.3358    2.1711   14.1759    9.7162   -1.5707   -1.3804
MDC-q        -1.0000       12.0176   -1.8865   -7.4768        -17.5996    5.1964   20.8276   14.8833   -3.2653    2.7163
 
Fit.Dens.    -1.0000        8.6402   -0.9426   -6.9951         -8.3989    2.3638   14.2741    9.7448   -1.5983   -1.3458



 =============
 Dipole Moment  ***  (Debye)  ***
 =============
  
 Vector   :         8.64377488     -0.94340841     -6.99556243
 Magnitude:        11.15987264

 This molecular dipole moment is calculated with analytic integration
 ************************************************************************************
 Since the molecule is NOT NEUTRAL, the dipole moment depends on the choice of origin
 ************************************************************************************



 =========================================
 Quadrupole Moment (Buckingham convention)  ***  (a.u.)  ***
 =========================================
  
      quad-xx        quad-xy        quad-xz        quad-yy        quad-yz        quad-zz
     -8.40896687     2.20227670    14.19719558     9.75055843    -1.57634082    -1.34159157

 This molecular quadrupole moment is calculated with analytic integration



 ===========================
 B O N D I N G   E N E R G Y  ***  (decomposition)  ***
 ===========================
  
*** IMPORTANT NOTE ***

The bond energy is computed as an energy difference between molecule and
fragments. In particular when the fragments are single atoms, they are usually
computed as SPHERICALLY SYMMETRIC and SPIN-RESTRICTED. Obviously, this usually
does NOT represent the true atomic groundstate.

To obtain the 'real' bond energy, (atomic) correction terms must be applied
for the true (multiplet) fragment ground state. See ref: E.J.Baerends,
V.Branchadell, M.Sodupe, Chem.Phys.Lett.265 (1997) 481

General theoretical background on the bond energy decomposition scheme used
here (Morokuma-Ziegler) can be found in the review paper:
F.M. Bickelhaupt and E.J. Baerends,
"Kohn-Sham Density Functional Theory: Predicting and Understanding Chemistry"
In: Rev. Comput. Chem.; Lipkowitz, K. B. and Boyd, D. B., Eds.;
Wiley-VCH: New York, 2000, Vol. 15, 1-86.

Symbols used in the Bickelhaupt-Baerends (BB) paper are given below to make
the direct connection to that paper, where detailed explanations can be found
on the meaning of the various terms.


                                                   hartree              eV         kcal/mol           kJ/mol
                                      --------------------     -----------       ----------      -----------

Pauli Repulsion
  Kinetic (Delta T^0):                   1.969125630648216         53.5826          1235.65          5169.94
  Delta V^Pauli Coulomb:                -1.195998123483316        -32.5448          -750.50         -3140.09
  Delta V^Pauli LDA-XC:                 -0.214525351586462         -5.8375          -134.62          -563.24
  Delta V^Pauli GGA-Exchange:            0.014129381560409          0.3845             8.87            37.10
  Delta V^Pauli GGA-Correlation:        -0.015069799104374         -0.4101            -9.46           -39.57
                                      --------------------     -----------       ----------      -----------
  Total Pauli Repulsion:                 0.557661738034473         15.1747           349.94          1464.14
 (Total Pauli Repulsion =
  Delta E^Pauli in BB paper)

Steric Interaction
  Pauli Repulsion (Delta E^Pauli):       0.557661738034473         15.1747           349.94          1464.14
  Electrostatic Interaction:            -0.123786052915744         -3.3684           -77.68          -325.00
 (Electrostatic Interaction =
  Delta V_elstat in the BB paper)
                                      --------------------     -----------       ----------      -----------
  Total Steric Interaction:              0.433875685118729         11.8064           272.26          1139.14
 (Total Steric Interaction =
  Delta E^0 in the BB paper)

Orbital Interactions
  A:                                    -0.658749790553511        -17.9255          -413.37         -1729.55
                                      --------------------     -----------       ----------      -----------
  Total Orbital Interactions:           -0.658749790553511        -17.9255          -413.37         -1729.55

Alternative Decomposition Orb.Int.
  Kinetic:                              -1.593015963797202        -43.3482          -999.63         -4182.46
  Coulomb:                               1.095566304386719         29.8119           687.48          2876.41
  XC:                                   -0.161300131143028         -4.3892          -101.22          -423.49
                                      --------------------     -----------       ----------      -----------
  Total Orbital Interactions:           -0.658749790553511        -17.9255          -413.37         -1729.55

  Residu (E=Steric+OrbInt+Res):          0.000051101142497          0.0014             0.03             0.13
  Dispersion Energy:                    -0.000225830959421         -0.0061            -0.14            -0.59

Total Bonding Energy:                   -0.225048835251705         -6.1239          -141.22          -590.87


Summary of Bonding Energy (energy terms are taken from the energy decomposition above)
======================================================================================

  Electrostatic Energy:                 -0.123786052915744         -3.3684           -77.68          -325.00
  Kinetic Energy:                        0.376109666851014         10.2345           236.01           987.48
  Coulomb (Steric+OrbInt) Energy:       -0.100380717954100         -2.7315           -62.99          -263.55
  XC Energy:                            -0.376765900273454        -10.2523          -236.42          -989.20
  Dispersion Energy:                    -0.000225830959421         -0.0061            -0.14            -0.59
                                      --------------------     -----------       ----------      -----------
  Total Bonding Energy:                 -0.225048835251705         -6.1239          -141.22          -590.87


Correction terms (incorporated in energies above; only for test purposes):

1. Indication of fit-quality: 1st-order fit-correction used in the energy (hartree):   0.0003577841
2. Electrostatic (Fit correction):   0.0000000000

Scaled ZORA energy correction, not included in bonding energy (hartree):           -0.0000153862
 NOTE: This scaled ZORA energy correction should only be used to compare two calculations
 in which the only difference in the calculation is the electron configuration.
 Then the difference in energy of this term should be added to the difference in energy of
 the two electron configurations.
 This term should not be used otherwise.
 In practice it is useful only for core excitation energy calculations.



 =========================================
 F R A G M E N T   E N E R G Y   T E R M S  ***  (summed over all fragments)  ***
 =========================================
  

The energy terms below are (parts of) the Total Energy of the fragments from which the molecule
 is built.

Exchange and Correlation
  Exchange LDA:                         -9.218347741683877       -250.8440         -5784.60        -24202.77
  Exchange GGA:                         -1.007477566811503        -27.4149          -632.20         -2645.13
  Correlation LDA:                       0.000000000000000          0.0000             0.00             0.00
  Correlation GGA:                      -0.341041736377269         -9.2802          -214.01          -895.40
                                      --------------------     -----------       ----------      -----------
  Total XC:                            -10.566867044872648       -287.5391         -6630.81        -27743.31



 =======================================================
 S F O   P O P U L A T I O N S ,   M O   A N A L Y S I S
 =======================================================
  
 A Mulliken population analysis is performed on (input-)selected MOs. All populations refer to SFOs.
 BAS populations may have been printed directly after the SCF part.


                                       === A ===


 SFO contributions (%) per orbital
 (multiplication by the orbital occupation yields the SFO Gross Populations)

 Orb.:        1      2      3      4      5      6      7      8      9     10
 occup:     2.00   2.00   2.00   2.00   2.00   1.00   0.00   0.00   0.00   0.00
 CF+SFO     ----   ----   ----   ----   ----   ----   ----   ----   ----   ----
 ------
      1:   99.95   0.00   0.00   0.00  -0.00   0.00  -0.00   0.00   0.00   0.00
      2:   -0.00  90.43   5.23   0.00   0.00   0.06  -1.74   1.33   0.00  -0.00
      3:    0.00  -0.03  -0.42   0.00   0.00  18.73 132.60   2.05   0.00   0.00
      4:   -0.00  -0.00  -0.10   0.00  -0.00  -0.45  -1.75  -2.85   0.00  -0.00
      6:   -0.00   1.37  71.22   8.41   0.38   0.81   4.83  14.11   0.13   0.01
      7:    0.00  -0.03   0.11   0.02   0.00   4.23 -24.17  -6.14   5.53   0.24
      8:    0.00   0.00   0.00   0.00   0.00  -0.27   1.02  -0.34   0.00   0.00
      9:   -0.00   0.11   5.56  83.96   7.06   0.06   0.38   1.10   1.30   0.11
     10:    0.00  -0.00   0.01   0.18   0.01   0.33  -1.89  -0.48  54.95   4.79
     12:   -0.00   0.03   1.45   5.63  90.55   0.02   0.10   0.29   0.09   1.41
     13:    0.00  -0.00   0.00   0.01   0.19   0.09  -0.49  -0.13   3.84  59.28
     27:    0.03   6.48  14.03  -0.00   0.00  21.71  27.16  26.73   0.00   0.00
     28:   -0.00   0.12   1.49  -0.00  -0.00  44.76 -29.77  66.21  -0.00   0.00
     29:    0.00  -0.42   0.80   0.00   0.00   0.19   8.86  -0.21   0.00   0.00
     30:    0.02   1.46  -0.05   0.14   0.01   7.92 -12.75   0.95   2.87   0.12
     31:    0.00   0.11  -0.00   1.40   0.12   0.62  -1.00   0.07  28.55   2.49
     32:    0.00   0.03  -0.00   0.09   1.51   0.16  -0.26   0.02   1.99  30.81


 Summation over all MOs, multiplied by occupation: Total SFO Gross Populations in this Irrep
 ===========================================================================================

     2.00    1.91    0.18   -0.01   -0.00    1.64    0.04   -0.00    1.93    0.01   -0.00    1.95
     0.00   -0.00    0.00    0.01    0.00    0.00    0.00    0.00    0.00    0.00    0.00    0.00
     0.00    0.00    0.63    0.48    0.01    0.11    0.04    0.03    0.00    0.00    0.00    0.00
     0.00



 List of selected MOs, ordered by energy, with the most significant SFO gross populations
 ========================================================================================

 Each percentage contribution in the table below corres ponds to the indicated SFO.
 In general, a SFO may be a linear combination of several Fragment Orbitals on the same,
 or on symmetry-related Fragments. Only the first 'member' of such a combination is
 specified here. A full definition of all SFOs is given in an earlier part of the output.
 The numbering of the SFOs in this table does NOT include the Core Orbitals, and starts
 from one for each symmetry representation, as in the SFO definition list earlier.

       E(eV)  Occ       MO           %     SFO (first member)   E(eV)  Occ   Fragment
 -------------------------------------------------------------------------------------

      -5.925  2.00     3 A         71.22%     1 P:x           -11.127  1.67     1 F
                                   14.03%     1 S              -6.532  1.00     2 H
                                    5.56%     1 P:y           -11.127  1.67     1 F
                                    5.23%     2 S             -29.785  2.00     1 F
                                    1.49%     2 S               2.394  0.00     2 H
                                    1.45%     1 P:z           -11.127  1.67     1 F
      -2.465  2.00     4 A         83.96%     1 P:y           -11.127  1.67     1 F
                                    8.41%     1 P:x           -11.127  1.67     1 F
                                    5.63%     1 P:z           -11.127  1.67     1 F
                                    1.40%     1 P:y            11.051  0.00     2 H
      -2.464  2.00     5 A         90.55%     1 P:z           -11.127  1.67     1 F
                                    7.06%     1 P:y           -11.127  1.67     1 F
                                    1.51%     1 P:z            11.051  0.00     2 H
       4.289  1.00     6 A         44.76%     2 S               2.394  0.00     2 H
                                   21.71%     1 S              -6.532  1.00     2 H
                                   18.73%     3 S               0.624  0.00     1 F
                                    7.92%     1 P:x            11.051  0.00     2 H
                                    4.23%     2 P:x            11.654  0.00     1 F
       6.447  0.00     7 A        132.60%     3 S               0.624  0.00     1 F
                                  -29.77%     2 S               2.394  0.00     2 H
                                   27.16%     1 S              -6.532  1.00     2 H
                                  -24.17%     2 P:x            11.654  0.00     1 F
                                  -12.75%     1 P:x            11.051  0.00     2 H
                                    8.86%     3 S              40.869  0.00     2 H
                                    4.83%     1 P:x           -11.127  1.67     1 F
                                   -1.89%     2 P:y            11.654  0.00     1 F
                                   -1.75%     4 S              42.880  0.00     1 F
                                   -1.74%     2 S             -29.785  2.00     1 F
                                    1.02%     3 P:x           123.977  0.00     1 F
      11.135  0.00     8 A         66.21%     2 S               2.394  0.00     2 H
                                   26.73%     1 S              -6.532  1.00     2 H
                                   14.11%     1 P:x           -11.127  1.67     1 F
                                   -6.14%     2 P:x            11.654  0.00     1 F
                                   -2.85%     4 S              42.880  0.00     1 F
                                    2.05%     3 S               0.624  0.00     1 F
                                    1.33%     2 S             -29.785  2.00     1 F
                                    1.10%     1 P:y           -11.127  1.67     1 F

 Energy gradients wrt nuclear displacements
 ==========================================

     Atom      Cartesian (a.u./angstrom)
                 X         Y         Z
 ----------------------------------------
     1 F    -0.000004 -0.000023 -0.000005
     2 H     0.000004  0.000023  0.000005
 ----------------------------------------



 =======================================================================
 Electrostatic potential at the Nuclei due to electrons and other nuclei
 =======================================================================
  
         Atom                  Potential
         ----                  ---------
     1)   F                  26.92157756
     2)   H                   1.20490514
 Mulliken charges used for AMS results%charges...


    =====================
     CALCULATION RESULTS
    =====================

Energy (hartree)            -0.22504884

Gradients (hartree/bohr)
  Index   Atom            d/dx            d/dy            d/dz
      1      F   -0.0000019778   -0.0000124298   -0.0000024622
      2      H    0.0000019778    0.0000124298    0.0000024622


--------------
Atomic charges
--------------
  Index   Atom    Charge
      1      F   -0.6872
      2      H   -0.3128


Dipole moment vector    (Debye):     8.64377488   -0.94340841   -6.99556243
              magnitude (Debye):    11.15987264


-----------------------
Molecular orbitals info
-----------------------
n orbitals:               37
n spin:                    1

Note: only printing virtual orbitals with
      energy smaller than HOMO + 100. eV

Note: fractional orbital occupations. HOMO and LUMO labels are not well defined!

HOMO (eV):              -2.4645
LUMO (eV):               4.2894
HOMO-LUMO gap (eV):      6.7539

   Index   Energy (eV)    Occupation
      23       93.0506         0.000       
      22       78.1483         0.000       
      21       78.1443         0.000       
      20       61.8418         0.000       
      19       50.7664         0.000       
      18       50.7662         0.000       
      17       38.5035         0.000       
      16       37.7649         0.000       
      15       37.7646         0.000       
      14       27.8462         0.000       
      13       23.9174         0.000       
      12       23.9169         0.000       
      11       22.9980         0.000       
      10       17.5075         0.000       
       9       17.5073         0.000       
       8       11.1352         0.000       
       7        6.4470         0.000       
       6        4.2894         1.000 < LUMO
       5       -2.4645         2.000 < HOMO
       4       -2.4650         2.000       
       3       -5.9249         2.000       
       2      -22.2065         2.000       
       1     -654.0924         2.000       

AMS application finished. Exiting.
NORMAL TERMINATION
     Total cpu time:      12.19
  Total system time:       0.38
 Total elapsed time:      12.67
NORMAL TERMINATION with warnings
