srun: Step created for StepId=663294.41

 *******************************************************************************
 *                                                                             *
 *  --------------------------------                                           *
 *   Amsterdam Modeling Suite (AMS)              2026.103                      *
 *  --------------------------------                                           *
 *                                               r260501 2026-05-01 873454b5   *
 *                                                                             *
 *                                                                             *
 *                              =================                              *
 *                              |               |                              *
 *                              |     A M S     |                              *
 *                              |               |                              *
 *                              =================                              *
 *                                                                             *
 *                                                                             *
 *   Online information and documentation:  https://www.scm.com/support/       *
 *   E-mail:  support@scm.com   info@scm.com                                   *
 *                                                                             *
 *   Scientific publications using AMS results must be properly referenced     *
 *   See the User Manuals (or the web site) for recommended citations          *
 *   The terms and conditions of the End User License Agreement apply to       *
 *   the use of AMS, https://www.scm.com/license-terms/                        *
 *                                                                             *
 **********************  x86_64_linux_intel / intelmpi  ************************
 
 Licensed to: Jong-June Jeon / University of Seoul 2026-06-02 13:44:15
 SCM User ID: u30731
  
 AMS 2026.103  RunTime: Jun04-2026 09:37:34  ShM Nodes: 1  Procs: 1

 AMS jobname: c5_fragB_opt
 AMS jobid  : 1775682272

 Start   directory: /gpfs/home1/yeseo1ee/projects/eda-asm-prediction/ADF_800/adf_outputs/batch_003/qmrxn20_e2_A_D_D_D_C_B/
 Results directory: /gpfs/home1/yeseo1ee/projects/eda-asm-prediction/ADF_800/adf_outputs/batch_003/qmrxn20_e2_A_D_D_D_C_B/c5_fragB_opt.results/
 Scratch directory: /tmp/amstmp_c5_fragB_opt_kid0.1775682272/

 RNG seed: -1453181227 -948027472 -400505946 1202103945 514125054 1338657646 -1369115286 -2127742489



                      ************************************************************************
                      *  ADF 2026.103  RunTime: Jun04-2026 09:37:35  ShM Nodes: 1  Procs: 1  *
                      ************************************************************************
  

       ***************************
       *  GEOMETRY OPTIMIZATION  *
       ***************************

Optimization Method                    Quasi Newton
Optimization Coordinates               Delocalized Coordinates
Optimize lattice                       F
 
 ------------------------------------------------------
 Convergence criteria (Hartree,Angstrom)
 ------------------------------------------------------
 Maximum gradient               0.000100000000
 Maximum rms gradient           0.000066666667
 Maximum step allowed           0.010000000000
 Maximum rms step allowed       0.006666666667
 Maximum energy change allowe   0.000160000000
 Maximum stress energy allowe   0.000500000000
 
Initial model Hessian                  Automatic Hessian
 
------------------------------------
Quasi-Newton Optimizer Parameters
------------------------------------
Hessian Update Method                  BFGS
Maximum number of steps                  200
First GDIIS cycle                          0
Maximum GDIIS vectors                      0
Trust radius (bohr)                        0.200000
Trust radius varies                        T
Constraints converged at all steps         T
Use projector                              T
 
 Rigid motions settings for: old optimizer
 Atomic rotations (x,y,z):     T T T
 Atomic translations (x,y,z):  T T T
 Tolerance:                  1.000000000000000E-006

--------
Geometry
--------
Formula: C5H10Br
Atoms
  Index Symbol   x (angstrom)   y (angstrom)   z (angstrom)
      1      C    -0.19800466     0.01652376    -0.27831197
      2      C    -0.10312848    -0.02199503     1.16111658
      3     Br     1.76605640    -0.06401000    -1.28414181
      4      H    -0.57917549    -0.92126703    -0.68643970
      5      C    -0.87403467     1.21939290    -0.89254174
      6      H    -1.02280378     1.08774275    -1.96587785
      7      H    -1.83355323     1.30711709    -0.37248693
      8      H    -0.29097603     2.12812093    -0.73665718
      9      C     0.48119669    -1.30250310     1.71679303
     10      H     1.56858983    -1.35338747     1.55720325
     11      H     0.28997211    -1.38138316     2.79309469
     12      H     0.03646124    -2.18112710     1.23651873
     13      C     0.46440952     1.22114204     1.81771764
     14      H     0.45837745     1.10076705     2.90636448
     15      H     1.49876311     1.41794014     1.49871090
     16      H    -0.14823478     2.09759154     1.59458192

Total System Charge              0.00000


----------------
ADF Engine Input
----------------
 
   Basis
     Type TZ2P
     Core None
   End
   XC
     GGA BLYP
     Dispersion GRIMME3 BJDAMP
   End
   Symmetry NOSYM
   NumericalQuality Normal
   Unrestricted No
   SCF
     Iterations 200
     Converge 1.0e-6
   End
   Save TAPE21
 

 Title: *** (NO TITLE) ***

 Using automatic Hessian for delocalized coordinates.
 *** GO1_GOStep1 ***

 Integrated fractional orbital density (NFOD):         1.000

 Energy gradients wrt nuclear displacements
 ==========================================

     Atom      Cartesian (a.u./angstrom)
                 X         Y         Z
 ----------------------------------------
     1 C     0.048459  0.009476  0.004641
     2 C    -0.123227  0.001559  0.021239
     3 Br   -0.003993  0.001937 -0.007190
     4 H    -0.003272  0.001398  0.002665
     5 C    -0.002380 -0.001126  0.001501
     6 H     0.003411 -0.000217  0.000655
     7 H     0.008919 -0.009643  0.007265
     8 H     0.001205 -0.005049 -0.000838
     9 C     0.041649  0.008087 -0.013126
    10 H    -0.001487 -0.006795  0.001860
    11 H    -0.004242  0.000898 -0.003876
    12 H    -0.002048  0.002915  0.002175
    13 C     0.045270  0.002092 -0.023881
    14 H    -0.004789 -0.001325 -0.002706
    15 H     0.000326  0.004512  0.006431
    16 H    -0.003800 -0.008719  0.003184
 ----------------------------------------
 
----------------------------------------------------------------------
Geometry Convergence after Step   1       (Hartree/Angstrom,Angstrom)
----------------------------------------------------------------------
current energy                               -2.90696753 Hartree
energy change                      -2.90696753     0.00016000    F
constrained gradient max            0.12322654     0.00010000    F
constrained gradient rms            0.02205934     0.00006667    F
gradient max                        0.12322654
gradient rms                        0.02205934
cart. step max                      0.04507824     0.01000000    F
cart. step rms                      0.01688869     0.00666667    F
 

--------
Geometry
--------
Formula: C5H10Br
Atoms
  Index Symbol   x (angstrom)   y (angstrom)   z (angstrom)
      1      C    -0.20721334     0.02345209    -0.28105632
      2      C    -0.06571751    -0.02134115     1.15973077
      3     Br     1.77042206    -0.07682907    -1.25852757
      4      H    -0.58628628    -0.91858769    -0.68259770
      5      C    -0.89040355     1.22403887    -0.91524095
      6      H    -1.03793952     1.07378050    -1.98681323
      7      H    -1.86094157     1.34405253    -0.41756517
      8      H    -0.30917029     2.13883805    -0.77722020
      9      C     0.48690837    -1.31181439     1.71984017
     10      H     1.57477473    -1.36030155     1.55813967
     11      H     0.30030018    -1.39234529     2.79830125
     12      H     0.04003864    -2.18838893     1.23523162
     13      C     0.46855428     1.22070063     1.84192820
     14      H     0.47188968     1.09172491     2.93077643
     15      H     1.50026777     1.41982543     1.51476227
     16      H    -0.14156843     2.10386036     1.62595479

Total System Charge              0.00000

 *** GO1_GOStep2 ***

 Integrated fractional orbital density (NFOD):         1.000

 Energy gradients wrt nuclear displacements
 ==========================================

     Atom      Cartesian (a.u./angstrom)
                 X         Y         Z
 ----------------------------------------
     1 C     0.045210  0.006420 -0.006608
     2 C    -0.093410 -0.002135  0.024073
     3 Br   -0.005629  0.000454 -0.002201
     4 H    -0.003125  0.000506  0.001305
     5 C    -0.005195 -0.000594 -0.003995
     6 H     0.001358  0.000757  0.000496
     7 H     0.004426 -0.004209  0.004553
     8 H     0.000338 -0.002826 -0.000817
     9 C     0.033721  0.004435 -0.009038
    10 H    -0.001624 -0.003321  0.000608
    11 H    -0.003074 -0.000643 -0.001405
    12 H    -0.002254  0.000671  0.001809
    13 C     0.037188  0.003010 -0.016014
    14 H    -0.003681  0.000139 -0.000320
    15 H    -0.000962  0.001601  0.003876
    16 H    -0.003287 -0.004264  0.003677
 ----------------------------------------

 dE(predicted):    -0.54857E-02, dE(actual):    -0.54184E-02, Trust radius:    0.400000, all in a.u.
 
----------------------------------------------------------------------
Geometry Convergence after Step   2       (Hartree/Angstrom,Angstrom)
----------------------------------------------------------------------
current energy                               -2.91238593 Hartree
energy change                      -0.00541840     0.00016000    F
constrained gradient max            0.09340633     0.00010000    F
constrained gradient rms            0.01743792     0.00006667    F
gradient max                        0.09340633
gradient rms                        0.01743792
cart. step max                      0.07867354     0.01000000    F
cart. step rms                      0.01864430     0.00666667    F
 

--------
Geometry
--------
Formula: C5H10Br
Atoms
  Index Symbol   x (angstrom)   y (angstrom)   z (angstrom)
      1      C    -0.20813714     0.01506077    -0.29055622
      2      C     0.01295603    -0.03101181     1.13502718
      3     Br     1.76941384    -0.07573561    -1.28137448
      4      H    -0.59021119    -0.92704990    -0.68821801
      5      C    -0.89258123     1.23175322    -0.90305497
      6      H    -1.05525264     1.08191213    -1.97330143
      7      H    -1.86469511     1.37963953    -0.41136305
      8      H    -0.30014631     2.14294809    -0.77121847
      9      C     0.49127600    -1.32915108     1.72812502
     10      H     1.58308868    -1.40059412     1.59233396
     11      H     0.28533708    -1.38541571     2.80521294
     12      H     0.03862700    -2.20093578     1.23978672
     13      C     0.46026484     1.22463453     1.83830865
     14      H     0.45879606     1.09654201     2.92740049
     15      H     1.49031575     1.45449522     1.51966374
     16      H    -0.16513644     2.09357382     1.59887196

Total System Charge              0.00000

 *** GO1_GOStep3 ***

 Integrated fractional orbital density (NFOD):         1.000

 Energy gradients wrt nuclear displacements
 ==========================================

     Atom      Cartesian (a.u./angstrom)
                 X         Y         Z
 ----------------------------------------
     1 C     0.037422  0.001150 -0.018382
     2 C    -0.049333 -0.002734  0.020581
     3 Br   -0.010551  0.000960  0.003632
     4 H    -0.002806 -0.000473  0.000819
     5 C    -0.004727  0.000074 -0.001895
     6 H    -0.000005 -0.000307  0.000442
     7 H     0.001044  0.000030  0.001836
     8 H     0.000404  0.000552  0.000224
     9 C     0.018985 -0.001702 -0.003314
    10 H    -0.001705  0.000582 -0.000794
    11 H    -0.001601 -0.000843  0.000129
    12 H    -0.001707 -0.000906  0.001196
    13 C     0.020867  0.004383 -0.007341
    14 H    -0.002223  0.000443  0.000857
    15 H    -0.001595 -0.001485  0.000182
    16 H    -0.002469  0.000277  0.001828
 ----------------------------------------

 dE(predicted):    -0.58454E-02, dE(actual):    -0.61965E-02, Trust radius:    0.800000, all in a.u.
 
----------------------------------------------------------------------
Geometry Convergence after Step   3       (Hartree/Angstrom,Angstrom)
----------------------------------------------------------------------
current energy                               -2.91858243 Hartree
energy change                      -0.00619650     0.00016000    F
constrained gradient max            0.04932899     0.00010000    F
constrained gradient rms            0.01088301     0.00006667    F
gradient max                        0.04932899
gradient rms                        0.01088301
cart. step max                      0.10200664     0.01000000    F
cart. step rms                      0.03137549     0.00666667    F
 

--------
Geometry
--------
Formula: C5H10Br
Atoms
  Index Symbol   x (angstrom)   y (angstrom)   z (angstrom)
      1      C    -0.21958572     0.00881506    -0.28781276
      2      C     0.11496267    -0.02576833     1.10027446
      3     Br     1.73977947    -0.12858475    -1.34845288
      4      H    -0.61857425    -0.93406515    -0.66201712
      5      C    -0.88466238     1.23718126    -0.89587213
      6      H    -1.06732483     1.07722600    -1.96229031
      7      H    -1.85089679     1.42217084    -0.40318810
      8      H    -0.26616010     2.13409017    -0.78630517
      9      C     0.50798939    -1.32794397     1.72103865
     10      H     1.60443056    -1.44245785     1.64039155
     11      H     0.25895664    -1.36194149     2.78941860
     12      H     0.05326585    -2.18540602     1.21230550
     13      C     0.44862148     1.22695150     1.84868208
     14      H     0.43820928     1.06924829     2.93274083
     15      H     1.47086709     1.53762199     1.56408110
     16      H    -0.21596313     2.06352777     1.60264975

Total System Charge              0.00000

 *** GO1_GOStep4 ***

 Integrated fractional orbital density (NFOD):         1.000

 Energy gradients wrt nuclear displacements
 ==========================================

     Atom      Cartesian (a.u./angstrom)
                 X         Y         Z
 ----------------------------------------
     1 C     0.027494 -0.005694 -0.019060
     2 C    -0.007505 -0.000009  0.009338
     3 Br   -0.017041  0.001904  0.009666
     4 H    -0.002056 -0.000088  0.001197
     5 C    -0.003008  0.001615  0.000108
     6 H    -0.000625 -0.000837 -0.000073
     7 H    -0.000203  0.001313 -0.000181
     8 H     0.000386  0.001116  0.000081
     9 C     0.001914 -0.000216 -0.000193
    10 H     0.000111  0.001938 -0.001621
    11 H     0.000230  0.000162 -0.000120
    12 H    -0.000749 -0.000032  0.000171
    13 C     0.002299  0.000084  0.002215
    14 H    -0.000424  0.000341  0.000400
    15 H    -0.000465 -0.002191 -0.002016
    16 H    -0.000358  0.000596  0.000089
 ----------------------------------------

 dE(predicted):    -0.31425E-02, dE(actual):    -0.39947E-02, Trust radius:    0.800000, all in a.u.
 
----------------------------------------------------------------------
Geometry Convergence after Step   4       (Hartree/Angstrom,Angstrom)
----------------------------------------------------------------------
current energy                               -2.92257712 Hartree
energy change                      -0.00399469     0.00016000    F
constrained gradient max            0.02747694     0.00010000    F
constrained gradient rms            0.00601258     0.00006667    F
gradient max                        0.02747694
gradient rms                        0.00601258
cart. step max                      0.05772862     0.01000000    F
cart. step rms                      0.02078826     0.00666667    F
 

--------
Geometry
--------
Formula: C5H10Br
Atoms
  Index Symbol   x (angstrom)   y (angstrom)   z (angstrom)
      1      C    -0.22596337     0.00859592    -0.28163901
      2      C     0.16844100    -0.02584966     1.08031566
      3     Br     1.72473893    -0.15790718    -1.40296195
      4      H    -0.62912759    -0.93396740    -0.64974140
      5      C    -0.88123104     1.24111789    -0.88292942
      6      H    -1.06609951     1.08807752    -1.95002672
      7      H    -1.84650365     1.42886429    -0.38928663
      8      H    -0.25553912     2.13180574    -0.77125626
      9      C     0.51608922    -1.32980177     1.72015816
     10      H     1.61305778    -1.47091707     1.69812017
     11      H     0.21818952    -1.35514733     2.77617940
     12      H     0.07446381    -2.18188152     1.19242605
     13      C     0.44941463     1.23036921     1.83844486
     14      H     0.43237204     1.06161761     2.92013624
     15      H     1.46311396     1.59260829     1.57990996
     16      H    -0.24150138     2.04308077     1.58779490

Total System Charge              0.00000

 *** GO1_GOStep5 ***

 Integrated fractional orbital density (NFOD):         1.000

 Energy gradients wrt nuclear displacements
 ==========================================

     Atom      Cartesian (a.u./angstrom)
                 X         Y         Z
 ----------------------------------------
     1 C     0.022427 -0.003722 -0.014215
     2 C     0.005257 -0.000551  0.003444
     3 Br   -0.018122  0.002170  0.010529
     4 H    -0.001413  0.000257  0.001528
     5 C    -0.002202  0.001842  0.001155
     6 H    -0.000438 -0.000470 -0.000274
     7 H    -0.000051  0.000593 -0.000477
     8 H     0.000369  0.000283 -0.000057
     9 C    -0.004696  0.001112  0.001390
    10 H     0.001140  0.000373 -0.001241
    11 H     0.001186  0.000109 -0.000537
    12 H     0.000149  0.000055  0.000112
    13 C    -0.005420 -0.002037  0.001186
    14 H     0.000261 -0.000053 -0.000667
    15 H     0.000885 -0.000462 -0.001357
    16 H     0.000667  0.000501 -0.000519
 ----------------------------------------

 dE(predicted):    -0.76416E-03, dE(actual):    -0.10537E-02, Trust radius:    0.800000, all in a.u.
 
----------------------------------------------------------------------
Geometry Convergence after Step   5       (Hartree/Angstrom,Angstrom)
----------------------------------------------------------------------
current energy                               -2.92363078 Hartree
energy change                      -0.00105366     0.00016000    F
constrained gradient max            0.02243374     0.00010000    F
constrained gradient rms            0.00517834     0.00006667    F
gradient max                        0.02243374
gradient rms                        0.00517834
cart. step max                      0.06156240     0.01000000    F
cart. step rms                      0.02018542     0.00666667    F
 

--------
Geometry
--------
Formula: C5H10Br
Atoms
  Index Symbol   x (angstrom)   y (angstrom)   z (angstrom)
      1      C    -0.24560583     0.01092658    -0.27147188
      2      C     0.19996057    -0.01821191     1.06707011
      3     Br     1.71499932    -0.20063290    -1.43771974
      4      H    -0.64765857    -0.93353593    -0.63498312
      5      C    -0.88471960     1.24229602    -0.88297879
      6      H    -1.06080984     1.08813320    -1.95115701
      7      H    -1.85405482     1.43610816    -0.39901795
      8      H    -0.25524072     2.12924979    -0.76908228
      9      C     0.52390333    -1.32495090     1.71357881
     10      H     1.61959256    -1.46818740     1.75968258
     11      H     0.16589404    -1.35792081     2.75134765
     12      H     0.11620684    -2.17485223     1.15627410
     13      C     0.46002484     1.23273094     1.84156851
     14      H     0.45338109     1.04523946     2.92052940
     15      H     1.46178748     1.63383231     1.59353424
     16      H    -0.25374548     2.03044092     1.60846942

Total System Charge              0.00000

 *** GO1_GOStep6 ***

 Integrated fractional orbital density (NFOD):         1.000

 Energy gradients wrt nuclear displacements
 ==========================================

     Atom      Cartesian (a.u./angstrom)
                 X         Y         Z
 ----------------------------------------
     1 C     0.017811 -0.003725 -0.011044
     2 C     0.010841  0.001289 -0.000588
     3 Br   -0.017610  0.002152  0.010525
     4 H    -0.001187  0.000158  0.000987
     5 C    -0.001540  0.001365  0.000791
     6 H    -0.000118 -0.000089 -0.000205
     7 H     0.000006  0.000029 -0.000490
     8 H     0.000083 -0.000446 -0.000390
     9 C    -0.007143  0.003090  0.000659
    10 H     0.001415 -0.001158 -0.000702
    11 H     0.001503  0.000151 -0.000275
    12 H     0.000518 -0.000083 -0.000059
    13 C    -0.008050 -0.004182  0.001600
    14 H     0.000901  0.000165 -0.000396
    15 H     0.001341  0.001169  0.000015
    16 H     0.001230  0.000116 -0.000428
 ----------------------------------------

 dE(predicted):    -0.48815E-03, dE(actual):    -0.76281E-03, Trust radius:    0.800000, all in a.u.
 
----------------------------------------------------------------------
Geometry Convergence after Step   6       (Hartree/Angstrom,Angstrom)
----------------------------------------------------------------------
current energy                               -2.92439359 Hartree
energy change                      -0.00076281     0.00016000    F
constrained gradient max            0.01782038     0.00010000    F
constrained gradient rms            0.00492495     0.00006667    F
gradient max                        0.01782038
gradient rms                        0.00492495
cart. step max                      0.14696151     0.01000000    F
cart. step rms                      0.04080520     0.00666667    F
 

--------
Geometry
--------
Formula: C5H10Br
Atoms
  Index Symbol   x (angstrom)   y (angstrom)   z (angstrom)
      1      C    -0.29223690     0.01380516    -0.24971533
      2      C     0.23147969    -0.01996764     1.04714045
      3     Br     1.71360787    -0.26328052    -1.48192522
      4      H    -0.68262469    -0.93019185    -0.62532697
      5      C    -0.89538856     1.25075483    -0.87036042
      6      H    -1.04116624     1.11082999    -1.94447993
      7      H    -1.87854848     1.44822153    -0.41451175
      8      H    -0.26426682     2.13183725    -0.72865012
      9      C     0.53563777    -1.32522872     1.71269274
     10      H     1.61727332    -1.43305183     1.90664409
     11      H     0.04778131    -1.38483791     2.69703547
     12      H     0.23121561    -2.18145994     1.10198602
     13      C     0.48359053     1.23380698     1.82461831
     14      H     0.50900407     1.03297574     2.90163991
     15      H     1.46310407     1.67790107     1.56726772
     16      H    -0.26454731     2.00855118     1.62158908

Total System Charge              0.00000

 *** GO1_GOStep7 ***

 Integrated fractional orbital density (NFOD):         1.000

 Energy gradients wrt nuclear displacements
 ==========================================

     Atom      Cartesian (a.u./angstrom)
                 X         Y         Z
 ----------------------------------------
     1 C     0.011292  0.000701 -0.005488
     2 C     0.013960 -0.000302 -0.006683
     3 Br   -0.015564  0.001942  0.009010
     4 H    -0.000716  0.000222  0.000255
     5 C     0.000150 -0.000184  0.000233
     6 H     0.000342  0.000742  0.000043
     7 H    -0.000026 -0.000571 -0.000329
     8 H    -0.000294 -0.000848 -0.000477
     9 C    -0.007345  0.004048  0.002626
    10 H     0.001133 -0.002976  0.000752
    11 H     0.001841 -0.000324  0.000557
    12 H     0.001024 -0.000601 -0.000157
    13 C    -0.008915 -0.005390 -0.001581
    14 H     0.001136  0.000129 -0.000016
    15 H     0.001160  0.002938  0.002010
    16 H     0.000823  0.000474 -0.000755
 ----------------------------------------

 dE(predicted):    -0.85763E-03, dE(actual):    -0.12879E-02, Trust radius:    0.800000, all in a.u.
 
----------------------------------------------------------------------
Geometry Convergence after Step   7       (Hartree/Angstrom,Angstrom)
----------------------------------------------------------------------
current energy                               -2.92568148 Hartree
energy change                      -0.00128789     0.00016000    F
constrained gradient max            0.01558635     0.00010000    F
constrained gradient rms            0.00444597     0.00006667    F
gradient max                        0.01558635
gradient rms                        0.00444597
cart. step max                      0.18471421     0.01000000    F
cart. step rms                      0.06201610     0.00666667    F
 

--------
Geometry
--------
Formula: C5H10Br
Atoms
  Index Symbol   x (angstrom)   y (angstrom)   z (angstrom)
      1      C    -0.36589133     0.02061609    -0.20833054
      2      C     0.24109479    -0.00562136     1.03589628
      3     Br     1.75218882    -0.32645525    -1.48111980
      4      H    -0.71396550    -0.93118163    -0.60375655
      5      C    -0.93077608     1.24789073    -0.86480825
      6      H    -1.01691817     1.10709088    -1.94465692
      7      H    -1.94103204     1.44360210    -0.46752959
      8      H    -0.31627889     2.13434727    -0.68842591
      9      C     0.53412335    -1.31869569     1.69814304
     10      H     1.56125105    -1.35755137     2.09135829
     11      H    -0.12437663    -1.44977438     2.57353576
     12      H     0.39924915    -2.16509456     1.01740161
     13      C     0.53986859     1.24171098     1.81929252
     14      H     0.63458399     1.01811215     2.88905049
     15      H     1.49344702     1.70294705     1.51305133
     16      H    -0.23265289     2.00872232     1.68654228

Total System Charge              0.00000

 *** GO1_GOStep8 ***

 Integrated fractional orbital density (NFOD):         1.000

 Energy gradients wrt nuclear displacements
 ==========================================

     Atom      Cartesian (a.u./angstrom)
                 X         Y         Z
 ----------------------------------------
     1 C     0.005889 -0.001007  0.003148
     2 C     0.010427  0.002259 -0.013521
     3 Br   -0.013185  0.001295  0.006916
     4 H     0.000829  0.000525 -0.001060
     5 C     0.002767 -0.003050 -0.001301
     6 H     0.000672  0.001300  0.000894
     7 H    -0.000474 -0.000568  0.000237
     8 H    -0.000753 -0.000858 -0.000715
     9 C    -0.005633  0.002809 -0.000999
    10 H    -0.000188 -0.002755  0.001893
    11 H     0.000819  0.000023  0.001469
    12 H     0.001311 -0.001054 -0.000521
    13 C    -0.003841 -0.003544 -0.001487
    14 H     0.001248  0.000532  0.001230
    15 H     0.000009  0.003487  0.003776
    16 H     0.000103  0.000605  0.000041
 ----------------------------------------

 dE(predicted):    -0.11502E-02, dE(actual):    -0.15746E-02, Trust radius:    1.000000, all in a.u.
 
----------------------------------------------------------------------
Geometry Convergence after Step   8       (Hartree/Angstrom,Angstrom)
----------------------------------------------------------------------
current energy                               -2.92725609 Hartree
energy change                      -0.00157461     0.00016000    F
constrained gradient max            0.01352106     0.00010000    F
constrained gradient rms            0.00384358     0.00006667    F
gradient max                        0.01352106
gradient rms                        0.00384358
cart. step max                      0.12550078     0.01000000    F
cart. step rms                      0.05095759     0.00666667    F
 

--------
Geometry
--------
Formula: C5H10Br
Atoms
  Index Symbol   x (angstrom)   y (angstrom)   z (angstrom)
      1      C    -0.42714165     0.02283445    -0.18299730
      2      C     0.21400009    -0.01514606     1.03816696
      3     Br     1.83462695    -0.31070761    -1.42781914
      4      H    -0.72296075    -0.92892222    -0.61941776
      5      C    -0.97035320     1.25194335    -0.84784993
      6      H    -0.99283003     1.13036882    -1.93353903
      7      H    -2.00674522     1.42699918    -0.51030430
      8      H    -0.38507454     2.14638924    -0.61683890
      9      C     0.52286468    -1.32426325     1.70808234
     10      H     1.49459527    -1.29706633     2.21685907
     11      H    -0.22966293    -1.51307497     2.49526597
     12      H     0.51096308    -2.16133762     1.00414964
     13      C     0.58564518     1.23823004     1.78758900
     14      H     0.73612990     1.02405045     2.85309217
     15      H     1.52809655     1.66049816     1.40919098
     16      H    -0.17823817     2.01986968     1.69201429

Total System Charge              0.00000

 *** GO1_GOStep9 ***

 Integrated fractional orbital density (NFOD):         1.000

 Energy gradients wrt nuclear displacements
 ==========================================

     Atom      Cartesian (a.u./angstrom)
                 X         Y         Z
 ----------------------------------------
     1 C     0.000281  0.002935  0.006050
     2 C     0.001550 -0.002765 -0.011340
     3 Br   -0.008272  0.000268  0.003773
     4 H     0.003506  0.000915 -0.002234
     5 C     0.002966 -0.004047 -0.001928
     6 H     0.000245  0.001371  0.000940
     7 H    -0.001092  0.000125  0.000356
     8 H    -0.000440 -0.000035 -0.000057
     9 C     0.001449  0.000186 -0.000018
    10 H    -0.001544 -0.000829  0.002281
    11 H    -0.001397 -0.000065  0.001696
    12 H     0.000916 -0.000128 -0.000089
    13 C     0.003098 -0.000407 -0.004239
    14 H     0.000812 -0.000275  0.001538
    15 H    -0.000939  0.002119  0.003090
    16 H    -0.001140  0.000631  0.000181
 ----------------------------------------

 dE(predicted):    -0.93839E-03, dE(actual):    -0.11227E-02, Trust radius:    1.000000, all in a.u.
 
----------------------------------------------------------------------
Geometry Convergence after Step   9       (Hartree/Angstrom,Angstrom)
----------------------------------------------------------------------
current energy                               -2.92837875 Hartree
energy change                      -0.00112266     0.00016000    F
constrained gradient max            0.01134135     0.00010000    F
constrained gradient rms            0.00281962     0.00006667    F
gradient max                        0.01134135
gradient rms                        0.00281962
cart. step max                      0.07028744     0.01000000    F
cart. step rms                      0.02059299     0.00666667    F
 

--------
Geometry
--------
Formula: C5H10Br
Atoms
  Index Symbol   x (angstrom)   y (angstrom)   z (angstrom)
      1      C    -0.43209782     0.02144671    -0.18145314
      2      C     0.18181957    -0.01224053     1.06088351
      3     Br     1.86858195    -0.29518407    -1.37351609
      4      H    -0.72999223    -0.93298312    -0.61278922
      5      C    -0.97151981     1.25202691    -0.85323377
      6      H    -0.99038210     1.12109545    -1.93867237
      7      H    -2.00818700     1.43219456    -0.52158128
      8      H    -0.38421568     2.14621845    -0.62431145
      9      C     0.52058809    -1.32799142     1.70220037
     10      H     1.52307581    -1.29944443     2.14657163
     11      H    -0.18657524    -1.52595836     2.52660963
     12      H     0.46603126    -2.15773262     0.99160326
     13      C     0.57504533     1.24246810     1.79626100
     14      H     0.72494135     1.04213354     2.86358497
     15      H     1.52534827     1.62332802     1.39398087
     16      H    -0.16854653     2.04128811     1.68950612

Total System Charge              0.00000

 *** GO1_GOStep10 ***

 Integrated fractional orbital density (NFOD):         1.000

 Energy gradients wrt nuclear displacements
 ==========================================

     Atom      Cartesian (a.u./angstrom)
                 X         Y         Z
 ----------------------------------------
     1 C     0.001244 -0.000993 -0.003712
     2 C     0.000186  0.000092  0.003628
     3 Br   -0.006152 -0.000004  0.003483
     4 H     0.001693 -0.000359 -0.001560
     5 C     0.001060 -0.001199 -0.001167
     6 H     0.000026  0.000398  0.000241
     7 H    -0.000589  0.000394 -0.000029
     8 H    -0.000325  0.000610  0.000236
     9 C     0.003363 -0.001884 -0.001219
    10 H    -0.001202  0.000521  0.000528
    11 H    -0.001726 -0.000390 -0.000132
    12 H    -0.000081 -0.000610 -0.000181
    13 C     0.004414  0.002399 -0.002144
    14 H     0.000008 -0.000015  0.000850
    15 H    -0.001032  0.000376  0.000752
    16 H    -0.000887  0.000663  0.000427
 ----------------------------------------

 dE(predicted):    -0.44327E-03, dE(actual):    -0.55549E-03, Trust radius:    1.000000, all in a.u.
 
----------------------------------------------------------------------
Geometry Convergence after Step  10       (Hartree/Angstrom,Angstrom)
----------------------------------------------------------------------
current energy                               -2.92893424 Hartree
energy change                      -0.00055549     0.00016000    F
constrained gradient max            0.00617238     0.00010000    F
constrained gradient rms            0.00174233     0.00006667    F
gradient max                        0.00617238
gradient rms                        0.00174233
cart. step max                      0.04043341     0.01000000    F
cart. step rms                      0.01351794     0.00666667    F
 

--------
Geometry
--------
Formula: C5H10Br
Atoms
  Index Symbol   x (angstrom)   y (angstrom)   z (angstrom)
      1      C    -0.43436693     0.02066081    -0.18436381
      2      C     0.17062685    -0.01485141     1.06118121
      3     Br     1.89675902    -0.27188568    -1.36815707
      4      H    -0.73444120    -0.93340165    -0.61491932
      5      C    -0.97211612     1.25323837    -0.85474123
      6      H    -0.99333546     1.11849425    -1.94017776
      7      H    -2.00731956     1.43679289    -0.52211186
      8      H    -0.38025578     2.14496576    -0.62809934
      9      C     0.51939524    -1.32540194     1.70503902
     10      H     1.54017512    -1.29743506     2.10613822
     11      H    -0.15514534    -1.50987389     2.55822214
     12      H     0.43212698    -2.16072106     1.00505246
     13      C     0.56607214     1.23530556     1.79896753
     14      H     0.70404975     1.03738035     2.86748204
     15      H     1.52557072     1.59365785     1.39654676
     16      H    -0.16388020     2.04374016     1.67958505

Total System Charge              0.00000

 *** GO1_GOStep11 ***

 Integrated fractional orbital density (NFOD):         1.000

 Energy gradients wrt nuclear displacements
 ==========================================

     Atom      Cartesian (a.u./angstrom)
                 X         Y         Z
 ----------------------------------------
     1 C     0.002544 -0.001034 -0.004617
     2 C    -0.000768  0.000630  0.002790
     3 Br   -0.003844  0.000067  0.002089
     4 H     0.000565 -0.000212 -0.000507
     5 C    -0.000064  0.000048  0.000098
     6 H    -0.000009 -0.000299 -0.000149
     7 H    -0.000208  0.000342 -0.000272
     8 H    -0.000113  0.000581  0.000436
     9 C     0.003590 -0.000852  0.000718
    10 H    -0.001113  0.000902 -0.000080
    11 H    -0.001500 -0.000634 -0.000449
    12 H    -0.000344  0.000339 -0.000025
    13 C     0.003194  0.001079  0.000300
    14 H    -0.000332  0.000041  0.000198
    15 H    -0.000923 -0.001050 -0.000847
    16 H    -0.000672  0.000053  0.000318
 ----------------------------------------

 dE(predicted):    -0.17356E-03, dE(actual):    -0.27675E-03, Trust radius:    1.000000, all in a.u.
 
----------------------------------------------------------------------
Geometry Convergence after Step  11       (Hartree/Angstrom,Angstrom)
----------------------------------------------------------------------
current energy                               -2.92921100 Hartree
energy change                      -0.00027675     0.00016000    F
constrained gradient max            0.00461357     0.00010000    F
constrained gradient rms            0.00138740     0.00006667    F
gradient max                        0.00461357
gradient rms                        0.00138740
cart. step max                      0.06912372     0.01000000    F
cart. step rms                      0.02065539     0.00666667    F
 

--------
Geometry
--------
Formula: C5H10Br
Atoms
  Index Symbol   x (angstrom)   y (angstrom)   z (angstrom)
      1      C    -0.43806399     0.01993304    -0.18170357
      2      C     0.16583383    -0.01645197     1.05996299
      3     Br     1.93593689    -0.24777383    -1.36411772
      4      H    -0.74011364    -0.93446353    -0.60979146
      5      C    -0.97078241     1.25254667    -0.85511374
      6      H    -0.99973905     1.11001696    -1.93973975
      7      H    -2.00217744     1.44487571    -0.51738786
      8      H    -0.36904183     2.13966080    -0.63840173
      9      C     0.51895989    -1.32545298     1.70149693
     10      H     1.56432352    -1.31452802     2.03701450
     11      H    -0.10198739    -1.48169449     2.59824005
     12      H     0.37398671    -2.16806688     1.02039581
     13      C     0.55155539     1.23207227     1.80242697
     14      H     0.66342726     1.03735543     2.87366139
     15      H     1.52559278     1.57425340     1.41867463
     16      H    -0.16379530     2.04838273     1.66002659

Total System Charge              0.00000

 *** GO1_GOStep12 ***

 Integrated fractional orbital density (NFOD):         1.000

 Energy gradients wrt nuclear displacements
 ==========================================

     Atom      Cartesian (a.u./angstrom)
                 X         Y         Z
 ----------------------------------------
     1 C     0.004154 -0.000952 -0.000949
     2 C    -0.000848  0.000862  0.000161
     3 Br   -0.001007  0.000149  0.000328
     4 H    -0.000525  0.000049  0.000862
     5 C    -0.000736  0.001007  0.001224
     6 H     0.000033 -0.000635 -0.000371
     7 H     0.000266 -0.000074 -0.000324
     8 H     0.000101  0.000126  0.000413
     9 C     0.001490 -0.000547  0.000296
    10 H    -0.000837  0.000929 -0.000317
    11 H    -0.000633 -0.000364 -0.000709
    12 H    -0.000316  0.000529  0.000160
    13 C    -0.000453  0.000662  0.001730
    14 H    -0.000462  0.000030 -0.000849
    15 H    -0.000278 -0.001533 -0.001851
    16 H     0.000052 -0.000238  0.000197
 ----------------------------------------

 dE(predicted):    -0.17636E-03, dE(actual):    -0.23238E-03, Trust radius:    1.000000, all in a.u.
 
----------------------------------------------------------------------
Geometry Convergence after Step  12       (Hartree/Angstrom,Angstrom)
----------------------------------------------------------------------
current energy                               -2.92944338 Hartree
energy change                      -0.00023238     0.00016000    F
constrained gradient max            0.00414244     0.00010000    F
constrained gradient rms            0.00094550     0.00006667    F
gradient max                        0.00414244
gradient rms                        0.00094550
cart. step max                      0.04473695     0.01000000    F
cart. step rms                      0.01417958     0.00666667    F
 

--------
Geometry
--------
Formula: C5H10Br
Atoms
  Index Symbol   x (angstrom)   y (angstrom)   z (angstrom)
      1      C    -0.44538957     0.02060505    -0.18121211
      2      C     0.16459042    -0.01681949     1.05659488
      3     Br     1.95772352    -0.23477623    -1.35891520
      4      H    -0.74421939    -0.93393061    -0.61149962
      5      C    -0.97320114     1.25168157    -0.86029925
      6      H    -1.00633557     1.10394699    -1.94404116
      7      H    -2.00254033     1.45106746    -0.52037654
      8      H    -0.36571470     2.13643705    -0.65148201
      9      C     0.52037864    -1.32420938     1.69947839
     10      H     1.57948135    -1.32864774     1.99227755
     11      H    -0.06296588    -1.45845924     2.62405913
     12      H     0.33695713    -2.17279816     1.03509101
     13      C     0.54666364     1.22828782     1.80689005
     14      H     0.63755495     1.03071996     2.87974233
     15      H     1.53101015     1.56810766     1.44688221
     16      H    -0.16007798     2.04945259     1.65245437

Total System Charge              0.00000

 *** GO1_GOStep13 ***

 Integrated fractional orbital density (NFOD):         1.000

 Energy gradients wrt nuclear displacements
 ==========================================

     Atom      Cartesian (a.u./angstrom)
                 X         Y         Z
 ----------------------------------------
     1 C     0.002678 -0.000382  0.000041
     2 C    -0.001173  0.000381 -0.001051
     3 Br    0.000255  0.000158 -0.000400
     4 H    -0.000763  0.000215  0.000751
     5 C    -0.000627  0.000783  0.000638
     6 H     0.000032 -0.000295 -0.000270
     7 H     0.000300 -0.000274 -0.000182
     8 H     0.000069 -0.000222  0.000046
     9 C     0.000318  0.000505  0.000531
    10 H    -0.000226  0.000278 -0.000017
    11 H    -0.000023 -0.000087 -0.000354
    12 H    -0.000108  0.000483  0.000064
    13 C    -0.001279 -0.000464  0.002118
    14 H    -0.000039  0.000073 -0.000825
    15 H     0.000246 -0.000666 -0.001211
    16 H     0.000340 -0.000487  0.000120
 ----------------------------------------

 dE(predicted):    -0.69049E-04, dE(actual):    -0.92462E-04, Trust radius:    1.000000, all in a.u.
 
----------------------------------------------------------------------
Geometry Convergence after Step  13       (Hartree/Angstrom,Angstrom)
----------------------------------------------------------------------
current energy                               -2.92953584 Hartree
energy change                      -0.00009246     0.00016000    T
constrained gradient max            0.00266941     0.00010000    F
constrained gradient rms            0.00070293     0.00006667    F
gradient max                        0.00266941
gradient rms                        0.00070293
cart. step max                      0.01979213     0.01000000    F
cart. step rms                      0.00707243     0.00666667    F
 

--------
Geometry
--------
Formula: C5H10Br
Atoms
  Index Symbol   x (angstrom)   y (angstrom)   z (angstrom)
      1      C    -0.45191672     0.02007045    -0.17828487
      2      C     0.16622056    -0.01782788     1.05525249
      3     Br     1.96967928    -0.22940244    -1.34838066
      4      H    -0.74401458    -0.93462121    -0.61326485
      5      C    -0.97637976     1.25100747    -0.85933271
      6      H    -1.00868573     1.10326997    -1.94291108
      7      H    -2.00590718     1.45328492    -0.52080623
      8      H    -0.36780372     2.13514683    -0.65098365
      9      C     0.52114255    -1.32653181     1.69692734
     10      H     1.58517164    -1.34000385     1.97248542
     11      H    -0.04668865    -1.45158374     2.63246584
     12      H     0.32095885    -2.17688069     1.03930305
     13      C     0.54702069     1.22933507     1.80425651
     14      H     0.62202469     1.03504644     2.87952327
     15      H     1.53783064     1.56753696     1.46144506
     16      H    -0.15473732     2.05281882     1.63794910

Total System Charge              0.00000

 *** GO1_GOStep14 ***

 Integrated fractional orbital density (NFOD):         1.000

 Energy gradients wrt nuclear displacements
 ==========================================

     Atom      Cartesian (a.u./angstrom)
                 X         Y         Z
 ----------------------------------------
     1 C     0.001062 -0.000074  0.000850
     2 C    -0.000800 -0.000176 -0.000369
     3 Br    0.000558  0.000111 -0.000482
     4 H    -0.000291  0.000068  0.000275
     5 C    -0.000179  0.000315  0.000221
     6 H     0.000058  0.000009 -0.000055
     7 H     0.000110 -0.000167 -0.000037
     8 H     0.000069 -0.000139 -0.000030
     9 C    -0.000649  0.000136 -0.000177
    10 H     0.000066 -0.000038  0.000136
    11 H     0.000170  0.000074  0.000014
    12 H     0.000094  0.000056  0.000046
    13 C    -0.000882 -0.000366  0.000577
    14 H     0.000193  0.000013 -0.000531
    15 H     0.000301  0.000216 -0.000366
    16 H     0.000119 -0.000039 -0.000074
 ----------------------------------------

 dE(predicted):    -0.26251E-04, dE(actual):    -0.36202E-04, Trust radius:    1.000000, all in a.u.
 
----------------------------------------------------------------------
Geometry Convergence after Step  14       (Hartree/Angstrom,Angstrom)
----------------------------------------------------------------------
current energy                               -2.92957204 Hartree
energy change                      -0.00003620     0.00016000    T
constrained gradient max            0.00105605     0.00010000    F
constrained gradient rms            0.00035448     0.00006667    F
gradient max                        0.00105605
gradient rms                        0.00035448
cart. step max                      0.01351993     0.01000000    F
cart. step rms                      0.00402165     0.00666667    T
 

--------
Geometry
--------
Formula: C5H10Br
Atoms
  Index Symbol   x (angstrom)   y (angstrom)   z (angstrom)
      1      C    -0.45614013     0.02107570    -0.17715221
      2      C     0.16687142    -0.01660774     1.05460195
      3     Br     1.96916793    -0.23641016    -1.34184036
      4      H    -0.74680562    -0.93406672    -0.61228394
      5      C    -0.97826510     1.25121869    -0.86121146
      6      H    -1.01154761     1.10085053    -1.94431477
      7      H    -2.00730591     1.45730870    -0.52290251
      8      H    -0.36803152     2.13496092    -0.65566203
      9      C     0.52453201    -1.32581720     1.69422719
     10      H     1.59015523    -1.34044806     1.96380900
     11      H    -0.03822514    -1.45058681     2.63297581
     12      H     0.32032980    -2.17610572     1.03758920
     13      C     0.54702669     1.22957435     1.80616955
     14      H     0.61063300     1.03486299     2.88261913
     15      H     1.54223347     1.56535594     1.47496499
     16      H    -0.15071330     2.05549990     1.63405451

Total System Charge              0.00000

 *** GO1_GOStep15 ***

 Integrated fractional orbital density (NFOD):         1.000

 Energy gradients wrt nuclear displacements
 ==========================================

     Atom      Cartesian (a.u./angstrom)
                 X         Y         Z
 ----------------------------------------
     1 C    -0.000012 -0.000040  0.000276
     2 C    -0.000375 -0.000213  0.000126
     3 Br    0.000385 -0.000012 -0.000211
     4 H    -0.000138 -0.000005  0.000058
     5 C     0.000147  0.000001 -0.000290
     6 H     0.000026  0.000116  0.000043
     7 H    -0.000035 -0.000026  0.000029
     8 H     0.000000 -0.000031 -0.000100
     9 C    -0.000542  0.000299 -0.000328
    10 H     0.000203 -0.000143  0.000196
    11 H     0.000140  0.000085  0.000147
    12 H     0.000069 -0.000068 -0.000011
    13 C    -0.000079 -0.000527  0.000158
    14 H     0.000226  0.000032 -0.000080
    15 H     0.000067  0.000437  0.000025
    16 H    -0.000083  0.000095 -0.000036
 ----------------------------------------

 dE(predicted):    -0.75970E-05, dE(actual):    -0.10247E-04, Trust radius:    1.000000, all in a.u.
 
----------------------------------------------------------------------
Geometry Convergence after Step  15       (Hartree/Angstrom,Angstrom)
----------------------------------------------------------------------
current energy                               -2.92958229 Hartree
energy change                      -0.00001025     0.00016000    T
constrained gradient max            0.00053175     0.00010000    F
constrained gradient rms            0.00019660     0.00006667    F
gradient max                        0.00053175
gradient rms                        0.00019660
cart. step max                      0.01467906     0.01000000    F
cart. step rms                      0.00453772     0.00666667    T
 

--------
Geometry
--------
Formula: C5H10Br
Atoms
  Index Symbol   x (angstrom)   y (angstrom)   z (angstrom)
      1      C    -0.45692754     0.02132085    -0.17738203
      2      C     0.16827983    -0.01596319     1.05386471
      3     Br     1.96852105    -0.23461007    -1.33776193
      4      H    -0.74445128    -0.93427547    -0.61368485
      5      C    -0.98143190     1.25061093    -0.86095183
      6      H    -1.01513375     1.09994787    -1.94398737
      7      H    -2.01060198     1.45573572    -0.52221572
      8      H    -0.37248795     2.13541267    -0.65575704
      9      C     0.52587446    -1.32560322     1.69319049
     10      H     1.59234476    -1.34181790     1.95893186
     11      H    -0.03455462    -1.44937215     2.63350438
     12      H     0.31821685    -2.17576540     1.03739981
     13      C     0.54899561     1.22993303     1.80583960
     14      H     0.59595395     1.03792325     2.88401412
     15      H     1.55135695     1.55642930     1.48820014
     16      H    -0.14003919     2.06075909     1.62243971

Total System Charge              0.00000

 *** GO1_GOStep16 ***

 Integrated fractional orbital density (NFOD):         1.000

 Energy gradients wrt nuclear displacements
 ==========================================

     Atom      Cartesian (a.u./angstrom)
                 X         Y         Z
 ----------------------------------------
     1 C    -0.000486 -0.000050 -0.000435
     2 C     0.000182 -0.000193  0.000586
     3 Br    0.000099 -0.000051  0.000047
     4 H     0.000114 -0.000068 -0.000157
     5 C     0.000144 -0.000177 -0.000278
     6 H     0.000018  0.000063  0.000086
     7 H    -0.000106  0.000113  0.000027
     8 H     0.000008  0.000054 -0.000026
     9 C    -0.000526  0.000207 -0.000176
    10 H     0.000165 -0.000102  0.000066
    11 H     0.000043  0.000030  0.000199
    12 H     0.000022 -0.000108 -0.000011
    13 C     0.000629 -0.000412 -0.000254
    14 H     0.000162  0.000035  0.000170
    15 H    -0.000160  0.000457  0.000174
    16 H    -0.000308  0.000201 -0.000018
 ----------------------------------------

 dE(predicted):    -0.48382E-05, dE(actual):    -0.80013E-05, Trust radius:    1.000000, all in a.u.
 
----------------------------------------------------------------------
Geometry Convergence after Step  16       (Hartree/Angstrom,Angstrom)
----------------------------------------------------------------------
current energy                               -2.92959029 Hartree
energy change                      -0.00000800     0.00016000    T
constrained gradient max            0.00063519     0.00010000    F
constrained gradient rms            0.00023240     0.00006667    F
gradient max                        0.00063519
gradient rms                        0.00023240
cart. step max                      0.05369320     0.01000000    F
cart. step rms                      0.01563266     0.00666667    F
 

--------
Geometry
--------
Formula: C5H10Br
Atoms
  Index Symbol   x (angstrom)   y (angstrom)   z (angstrom)
      1      C    -0.46147407     0.02301902    -0.17624343
      2      C     0.17118714    -0.01331292     1.05198069
      3     Br     1.96585273    -0.23354288    -1.32866256
      4      H    -0.74257370    -0.93394848    -0.61380169
      5      C    -0.99113624     1.24932986    -0.86046609
      6      H    -1.02710554     1.09559455    -1.94306279
      7      H    -2.02011760     1.45332356    -0.52025033
      8      H    -0.38443300     2.13659943    -0.65865756
      9      C     0.53273750    -1.32396015     1.68872909
     10      H     1.60112141    -1.34080255     1.94507791
     11      H    -0.02206817    -1.44822895     2.63224933
     12      H     0.31912079    -2.17337746     1.03379008
     13      C     0.55309737     1.23076527     1.80655374
     14      H     0.54226074     1.04865227     2.88830388
     15      H     1.57918150     1.52136299     1.53577859
     16      H    -0.10173562     2.07919176     1.58432517

Total System Charge              0.00000

 *** GO1_GOStep17 ***

 Integrated fractional orbital density (NFOD):         1.000

 Energy gradients wrt nuclear displacements
 ==========================================

     Atom      Cartesian (a.u./angstrom)
                 X         Y         Z
 ----------------------------------------
     1 C    -0.001440  0.000133 -0.001472
     2 C     0.001242 -0.000168  0.000973
     3 Br   -0.000492 -0.000202  0.000626
     4 H     0.000628 -0.000125 -0.000479
     5 C     0.000241 -0.000529 -0.000256
     6 H    -0.000049 -0.000073  0.000089
     7 H    -0.000190  0.000350  0.000013
     8 H     0.000005  0.000224  0.000107
     9 C    -0.000116 -0.000138  0.000234
    10 H    -0.000002  0.000073 -0.000269
    11 H    -0.000190 -0.000035  0.000137
    12 H    -0.000153 -0.000168  0.000003
    13 C     0.001895  0.000066 -0.000591
    14 H    -0.000039  0.000044  0.000551
    15 H    -0.000649  0.000250  0.000198
    16 H    -0.000690  0.000298  0.000135
 ----------------------------------------

 dE(predicted):    -0.13340E-04, dE(actual):    -0.13506E-04, Trust radius:    1.000000, all in a.u.
 
----------------------------------------------------------------------
Geometry Convergence after Step  17       (Hartree/Angstrom,Angstrom)
----------------------------------------------------------------------
current energy                               -2.92960379 Hartree
energy change                      -0.00001351     0.00016000    T
constrained gradient max            0.00189204     0.00010000    F
constrained gradient rms            0.00054678     0.00006667    F
gradient max                        0.00189204
gradient rms                        0.00054678
cart. step max                      0.21436982     0.01000000    F
cart. step rms                      0.06335856     0.00666667    F
 

--------
Geometry
--------
Formula: C5H10Br
Atoms
  Index Symbol   x (angstrom)   y (angstrom)   z (angstrom)
      1      C    -0.47631419     0.02837173    -0.17248880
      2      C     0.18241455    -0.00393816     1.04431400
      3     Br     1.95791217    -0.21873173    -1.30626798
      4      H    -0.73599951    -0.93294658    -0.61409895
      5      C    -1.02785588     1.24339820    -0.85716643
      6      H    -1.07455495     1.07917448    -1.93805803
      7      H    -2.05532520     1.44088304    -0.50837677
      8      H    -0.42984922     2.13992125    -0.66928504
      9      C     0.55857112    -1.31746767     1.67289762
     10      H     1.63409430    -1.33821322     1.89144089
     11      H     0.02861197    -1.44076914     2.63030323
     12      H     0.32028648    -2.16518360     1.02403049
     13      C     0.56938412     1.23254805     1.80881505
     14      H     0.32789093     1.11032037     2.87504995
     15      H     1.65599454     1.37532550     1.74182247
     16      H     0.07865400     2.13797278     1.44271237

Total System Charge              0.00000

 *** GO1_GOStep18 ***

 Integrated fractional orbital density (NFOD):         1.000

 Energy gradients wrt nuclear displacements
 ==========================================

     Atom      Cartesian (a.u./angstrom)
                 X         Y         Z
 ----------------------------------------
     1 C    -0.004079  0.000536 -0.004370
     2 C     0.003534 -0.000004  0.001919
     3 Br   -0.002171 -0.000828  0.002150
     4 H     0.002185 -0.000322 -0.001628
     5 C     0.000488 -0.001377  0.000006
     6 H    -0.000182 -0.000552  0.000083
     7 H    -0.000393  0.000855 -0.000137
     8 H     0.000119  0.000458  0.000323
     9 C     0.001424 -0.001248  0.001544
    10 H    -0.000393  0.000471 -0.001253
    11 H    -0.000779 -0.000150 -0.000140
    12 H    -0.000388 -0.000309 -0.000004
    13 C     0.004820  0.002480 -0.000148
    14 H    -0.000776  0.000159  0.001292
    15 H    -0.002188 -0.000636 -0.000108
    16 H    -0.001222  0.000466  0.000471
 ----------------------------------------

 dE(predicted):    -0.66024E-04, dE(actual):    -0.50462E-04, Trust radius:    1.000000, all in a.u.
 
----------------------------------------------------------------------
Geometry Convergence after Step  18       (Hartree/Angstrom,Angstrom)
----------------------------------------------------------------------
current energy                               -2.92965426 Hartree
energy change                      -0.00005046     0.00016000    T
constrained gradient max            0.00483925     0.00010000    F
constrained gradient rms            0.00158797     0.00006667    F
gradient max                        0.00483925
gradient rms                        0.00158797
cart. step max                      0.02050261     0.01000000    F
cart. step rms                      0.00648337     0.00666667    T
 

--------
Geometry
--------
Formula: C5H10Br
Atoms
  Index Symbol   x (angstrom)   y (angstrom)   z (angstrom)
      1      C    -0.47207970     0.02697591    -0.17363171
      2      C     0.18285740    -0.00598665     1.04403088
      3     Br     1.96227688    -0.20615459    -1.31723096
      4      H    -0.73444478    -0.93381077    -0.61461280
      5      C    -1.02526700     1.24291421    -0.85590046
      6      H    -1.07021576     1.08241866    -1.93743448
      7      H    -2.05355451     1.43573292    -0.50734198
      8      H    -0.42979127     2.14023022    -0.66456862
      9      C     0.55306327    -1.31855155     1.67688823
     10      H     1.62680236    -1.34031651     1.90473347
     11      H     0.01674827    -1.43928366     2.63105267
     12      H     0.31846904    -2.16716515     1.02800916
     13      C     0.57037205     1.23105350     1.80622002
     14      H     0.34740513     1.10483409     2.87542047
     15      H     1.65485073     1.38509613     1.72131985
     16      H     0.06642314     2.13267855     1.44869031

Total System Charge              0.00000

 *** GO1_GOStep19 ***

 Integrated fractional orbital density (NFOD):         1.000

 Energy gradients wrt nuclear displacements
 ==========================================

     Atom      Cartesian (a.u./angstrom)
                 X         Y         Z
 ----------------------------------------
     1 C    -0.003124  0.000413 -0.003053
     2 C     0.002910 -0.000080  0.000951
     3 Br   -0.001556 -0.000581  0.001487
     4 H     0.001918 -0.000192 -0.001303
     5 C     0.000292 -0.001117  0.000195
     6 H    -0.000155 -0.000448  0.000032
     7 H    -0.000231  0.000684 -0.000116
     8 H     0.000126  0.000385  0.000316
     9 C     0.000780 -0.001045  0.001638
    10 H    -0.000399  0.000426 -0.001018
    11 H    -0.000568 -0.000125 -0.000121
    12 H    -0.000354 -0.000180  0.000043
    13 C     0.003739  0.001789 -0.000124
    14 H    -0.000641  0.000136  0.000947
    15 H    -0.001597 -0.000384 -0.000162
    16 H    -0.001140  0.000316  0.000290
 ----------------------------------------

 dE(predicted):    -0.30267E-04, dE(actual):    -0.45138E-04, Trust radius:    1.000000, all in a.u.
 
----------------------------------------------------------------------
Geometry Convergence after Step  19       (Hartree/Angstrom,Angstrom)
----------------------------------------------------------------------
current energy                               -2.92969939 Hartree
energy change                      -0.00004514     0.00016000    T
constrained gradient max            0.00376313     0.00010000    F
constrained gradient rms            0.00121069     0.00006667    F
gradient max                        0.00376313
gradient rms                        0.00121069
cart. step max                      0.16660514     0.01000000    F
cart. step rms                      0.04754475     0.00666667    F
 

--------
Geometry
--------
Formula: C5H10Br
Atoms
  Index Symbol   x (angstrom)   y (angstrom)   z (angstrom)
      1      C    -0.47235293     0.02755527    -0.17190256
      2      C     0.19561344    -0.00407031     1.03553083
      3     Br     1.97333646    -0.13763546    -1.34020482
      4      H    -0.72890690    -0.93559160    -0.61082894
      5      C    -1.05312867     1.23436611    -0.84790463
      6      H    -1.09991090     1.07704081    -1.93007986
      7      H    -2.08360309     1.40076909    -0.49363347
      8      H    -0.47836473     2.14478216    -0.65740133
      9      C     0.55831869    -1.31580968     1.67495953
     10      H     1.63061644    -1.34326393     1.90773718
     11      H     0.01907469    -1.42842690     2.62805644
     12      H     0.31883782    -2.16588862     1.03020612
     13      C     0.59391497     1.22547437     1.79856230
     14      H     0.21719231     1.16631487     2.83035806
     15      H     1.69024934     1.27324911     1.86457929
     16      H     0.23302828     2.15180001     1.34760990

Total System Charge              0.00000

 *** GO1_GOStep20 ***

 Integrated fractional orbital density (NFOD):         1.000

 Energy gradients wrt nuclear displacements
 ==========================================

     Atom      Cartesian (a.u./angstrom)
                 X         Y         Z
 ----------------------------------------
     1 C    -0.001227  0.000263  0.000766
     2 C     0.000769  0.000400 -0.001706
     3 Br   -0.000364 -0.000161  0.000067
     4 H     0.001994  0.000233 -0.000815
     5 C    -0.000442 -0.000311  0.000480
     6 H    -0.000187 -0.000209 -0.000126
     7 H     0.000108  0.000393 -0.000159
     8 H    -0.000016  0.000088 -0.000157
     9 C     0.000083 -0.000620  0.002551
    10 H    -0.000585  0.000536 -0.000550
    11 H    -0.000136  0.000114 -0.000415
    12 H    -0.000225  0.000306  0.000130
    13 C     0.000888 -0.000105  0.000222
    14 H    -0.000143 -0.000086 -0.000078
    15 H     0.000057 -0.000594 -0.000486
    16 H    -0.000576 -0.000248  0.000277
 ----------------------------------------

 dE(predicted):    -0.10269E-03, dE(actual):    -0.17285E-03, Trust radius:    1.000000, all in a.u.
 
----------------------------------------------------------------------
Geometry Convergence after Step  20       (Hartree/Angstrom,Angstrom)
----------------------------------------------------------------------
current energy                               -2.92987225 Hartree
energy change                      -0.00017285     0.00016000    F
constrained gradient max            0.00252284     0.00010000    F
constrained gradient rms            0.00067151     0.00006667    F
gradient max                        0.00252284
gradient rms                        0.00067151
cart. step max                      0.20705064     0.01000000    F
cart. step rms                      0.05764404     0.00666667    F
 

--------
Geometry
--------
Formula: C5H10Br
Atoms
  Index Symbol   x (angstrom)   y (angstrom)   z (angstrom)
      1      C    -0.47591603     0.02759912    -0.16780881
      2      C     0.21009055    -0.00198029     1.02782063
      3     Br     1.97414410    -0.08848736    -1.35769664
      4      H    -0.73572832    -0.93737693    -0.60093909
      5      C    -1.07848744     1.22743446    -0.83691529
      6      H    -1.13333981     1.07130911    -1.91908110
      7      H    -2.10758402     1.37592082    -0.47199665
      8      H    -0.51677008     2.14656362    -0.65097780
      9      C     0.57592207    -1.31456916     1.66538403
     10      H     1.65142393    -1.35052529     1.88132181
     11      H     0.05232451    -1.42107388     2.62753269
     12      H     0.31865287    -2.16475998     1.02778809
     13      C     0.61016177     1.22334799     1.79224217
     14      H     0.05409566     1.26543951     2.74200267
     15      H     1.67484655     1.15920375     2.05886914
     16      H     0.44007893     2.15261984     1.24809819

Total System Charge              0.00000

 *** GO1_GOStep21 ***

 Integrated fractional orbital density (NFOD):         1.000

 Energy gradients wrt nuclear displacements
 ==========================================

     Atom      Cartesian (a.u./angstrom)
                 X         Y         Z
 ----------------------------------------
     1 C     0.000188  0.000126  0.002981
     2 C    -0.001020  0.001955 -0.002205
     3 Br    0.000284 -0.000011 -0.000715
     4 H     0.001420  0.000345 -0.000411
     5 C    -0.001123  0.000285  0.000343
     6 H    -0.000141 -0.000098 -0.000258
     7 H     0.000436 -0.000105 -0.000181
     8 H    -0.000288 -0.000355 -0.000925
     9 C     0.000315 -0.000373  0.002822
    10 H    -0.000477  0.000136 -0.000017
    11 H     0.000168  0.000151 -0.000825
    12 H     0.000035  0.000507  0.000107
    13 C    -0.002260  0.000870 -0.002129
    14 H     0.000475 -0.000702 -0.000178
    15 H     0.001318 -0.001218  0.000510
    16 H     0.000669 -0.001513  0.001081
 ----------------------------------------

 dE(predicted):    -0.12906E-03, dE(actual):    -0.20363E-04, Trust radius:    1.000000, all in a.u.
 
----------------------------------------------------------------------
Geometry Convergence after Step  21       (Hartree/Angstrom,Angstrom)
----------------------------------------------------------------------
current energy                               -2.92989261 Hartree
energy change                      -0.00002036     0.00016000    T
constrained gradient max            0.00296566     0.00010000    F
constrained gradient rms            0.00104406     0.00006667    F
gradient max                        0.00296566
gradient rms                        0.00104406
cart. step max                      0.09871380     0.01000000    F
cart. step rms                      0.02438666     0.00666667    F
 

--------
Geometry
--------
Formula: C5H10Br
Atoms
  Index Symbol   x (angstrom)   y (angstrom)   z (angstrom)
      1      C    -0.47564531     0.02399365    -0.16669060
      2      C     0.20167770    -0.00729098     1.03410353
      3     Br     1.96673156    -0.12570199    -1.36036420
      4      H    -0.75987678    -0.93792365    -0.59161634
      5      C    -1.05632209     1.23433323    -0.83703282
      6      H    -1.10978845     1.08182061    -1.91959384
      7      H    -2.08392372     1.39800082    -0.47417287
      8      H    -0.47926226     2.14296428    -0.64653702
      9      C     0.57774835    -1.31891299     1.66488401
     10      H     1.65445394    -1.34842210     1.87977054
     11      H     0.05962570    -1.43247963     2.62960556
     12      H     0.32627441    -2.16941783     1.02526589
     13      C     0.58851240     1.22653998     1.79300297
     14      H     0.09190273     1.23434484     2.77501255
     15      H     1.67044193     1.21708375     1.99019495
     16      H     0.34136513     2.15173330     1.26981172

Total System Charge              0.00000

 *** GO1_GOStep22 ***

 Integrated fractional orbital density (NFOD):         1.000

 Energy gradients wrt nuclear displacements
 ==========================================

     Atom      Cartesian (a.u./angstrom)
                 X         Y         Z
 ----------------------------------------
     1 C     0.001456 -0.000385  0.002130
     2 C    -0.001101  0.000738 -0.000714
     3 Br    0.000547  0.000055 -0.000657
     4 H    -0.000385  0.000221  0.000472
     5 C    -0.000008  0.000807  0.000320
     6 H    -0.000045  0.000098 -0.000215
     7 H     0.000525 -0.000410  0.000158
     8 H     0.000097 -0.000073 -0.000206
     9 C     0.000120 -0.000600 -0.000066
    10 H     0.000083 -0.000127  0.000512
    11 H     0.000332  0.000335 -0.000429
    12 H     0.000038  0.000058  0.000163
    13 C    -0.003745 -0.000075 -0.000719
    14 H     0.000510 -0.000082 -0.000431
    15 H     0.001147 -0.000124 -0.000053
    16 H     0.000432 -0.000435 -0.000265
 ----------------------------------------

 dE(predicted):    -0.78453E-04, dE(actual):    -0.51321E-04, Trust radius:    1.000000, all in a.u.
 
----------------------------------------------------------------------
Geometry Convergence after Step  22       (Hartree/Angstrom,Angstrom)
----------------------------------------------------------------------
current energy                               -2.92994393 Hartree
energy change                      -0.00005132     0.00016000    T
constrained gradient max            0.00373111     0.00010000    F
constrained gradient rms            0.00078283     0.00006667    F
gradient max                        0.00373111
gradient rms                        0.00078283
cart. step max                      0.01363220     0.01000000    F
cart. step rms                      0.00493880     0.00666667    T
 

--------
Geometry
--------
Formula: C5H10Br
Atoms
  Index Symbol   x (angstrom)   y (angstrom)   z (angstrom)
      1      C    -0.47783408     0.02516535    -0.16728117
      2      C     0.20092662    -0.00493511     1.03411643
      3     Br     1.97061583    -0.12351190    -1.34673200
      4      H    -0.75208129    -0.93804481    -0.59609069
      5      C    -1.06091327     1.23243073    -0.84021290
      6      H    -1.10871623     1.07830305    -1.92272819
      7      H    -2.09116599     1.39415338    -0.48312495
      8      H    -0.48785490     2.14329056    -0.64751462
      9      C     0.57438836    -1.31755494     1.66452320
     10      H     1.65230594    -1.35039953     1.87179491
     11      H     0.06057064    -1.42924976     2.63204224
     12      H     0.31671494    -2.16729221     1.02620984
     13      C     0.59447208     1.22676491     1.79541822
     14      H     0.10374555     1.23016854     2.78085770
     15      H     1.67686759     1.21674446     1.98534184
     16      H     0.34187345     2.15463259     1.27902419

Total System Charge              0.00000

 *** GO1_GOStep23 ***

 Integrated fractional orbital density (NFOD):         1.000

 Energy gradients wrt nuclear displacements
 ==========================================

     Atom      Cartesian (a.u./angstrom)
                 X         Y         Z
 ----------------------------------------
     1 C     0.000144 -0.000493  0.000579
     2 C    -0.000532  0.000587 -0.000109
     3 Br    0.000169 -0.000081 -0.000260
     4 H     0.000341  0.000067 -0.000198
     5 C    -0.000210  0.000202  0.000073
     6 H    -0.000066 -0.000073 -0.000036
     7 H     0.000143 -0.000010  0.000054
     8 H     0.000112 -0.000091 -0.000197
     9 C     0.000048 -0.000308  0.000234
    10 H    -0.000057  0.000062  0.000073
    11 H     0.000059  0.000157 -0.000100
    12 H     0.000061  0.000089  0.000052
    13 C    -0.000939  0.000084 -0.000182
    14 H     0.000197 -0.000006 -0.000083
    15 H     0.000410  0.000027  0.000091
    16 H     0.000119 -0.000212  0.000008
 ----------------------------------------

 dE(predicted):    -0.20861E-04, dE(actual):    -0.20953E-04, Trust radius:    1.000000, all in a.u.
 
----------------------------------------------------------------------
Geometry Convergence after Step  23       (Hartree/Angstrom,Angstrom)
----------------------------------------------------------------------
current energy                               -2.92996488 Hartree
energy change                      -0.00002095     0.00016000    T
constrained gradient max            0.00092199     0.00010000    F
constrained gradient rms            0.00025278     0.00006667    F
gradient max                        0.00092199
gradient rms                        0.00025278
cart. step max                      0.02051649     0.01000000    F
cart. step rms                      0.00570428     0.00666667    T
 

--------
Geometry
--------
Formula: C5H10Br
Atoms
  Index Symbol   x (angstrom)   y (angstrom)   z (angstrom)
      1      C    -0.47992949     0.02549720    -0.16629505
      2      C     0.20211703    -0.00483979     1.03334984
      3     Br     1.97265728    -0.11806990    -1.34148305
      4      H    -0.75338152    -0.93817875    -0.59472938
      5      C    -1.06464180     1.23162798    -0.83939317
      6      H    -1.10728820     1.07913079    -1.92235129
      7      H    -2.09720271     1.38887549    -0.48671200
      8      H    -0.49618798     2.14448113    -0.64242921
      9      C     0.57549401    -1.31763269     1.66325702
     10      H     1.65431956    -1.35256622     1.86548381
     11      H     0.06584467    -1.42796514     2.63327442
     12      H     0.31326726    -2.16737677     1.02673207
     13      C     0.59803811     1.22659356     1.79413201
     14      H     0.09167519     1.24015327     2.77185188
     15      H     1.67674388     1.20629550     2.00109123
     16      H     0.36238994     2.15463963     1.26986490

Total System Charge              0.00000

 *** GO1_GOStep24 ***

 Integrated fractional orbital density (NFOD):         1.000

 Energy gradients wrt nuclear displacements
 ==========================================

     Atom      Cartesian (a.u./angstrom)
                 X         Y         Z
 ----------------------------------------
     1 C     0.000027 -0.000234  0.000420
     2 C    -0.000522  0.000241  0.000054
     3 Br    0.000102 -0.000090 -0.000154
     4 H     0.000424 -0.000004 -0.000171
     5 C    -0.000260  0.000073 -0.000069
     6 H    -0.000069 -0.000083  0.000009
     7 H     0.000045  0.000062  0.000046
     8 H     0.000104 -0.000086 -0.000191
     9 C     0.000025 -0.000082  0.000125
    10 H    -0.000016  0.000045  0.000063
    11 H     0.000012  0.000065  0.000033
    12 H     0.000080  0.000075  0.000036
    13 C    -0.000326  0.000060 -0.000316
    14 H     0.000131 -0.000003 -0.000020
    15 H     0.000169  0.000033  0.000116
    16 H     0.000074 -0.000073  0.000019
 ----------------------------------------

 dE(predicted):    -0.35882E-05, dE(actual):    -0.51066E-05, Trust radius:    1.000000, all in a.u.
 
----------------------------------------------------------------------
Geometry Convergence after Step  24       (Hartree/Angstrom,Angstrom)
----------------------------------------------------------------------
current energy                               -2.92996999 Hartree
energy change                      -0.00000511     0.00016000    T
constrained gradient max            0.00052326     0.00010000    F
constrained gradient rms            0.00016145     0.00006667    F
gradient max                        0.00052326
gradient rms                        0.00016145
cart. step max                      0.03645284     0.01000000    F
cart. step rms                      0.01109533     0.00666667    F
 

--------
Geometry
--------
Formula: C5H10Br
Atoms
  Index Symbol   x (angstrom)   y (angstrom)   z (angstrom)
      1      C    -0.48397222     0.02565116    -0.16448510
      2      C     0.20491385    -0.00493148     1.03152239
      3     Br     1.97599454    -0.10849027    -1.33181198
      4      H    -0.75991712    -0.93847383    -0.59071881
      5      C    -1.07033313     1.23025971    -0.83763536
      6      H    -1.09847511     1.08334331    -1.92185735
      7      H    -2.10889506     1.37604978    -0.49738454
      8      H    -0.51327091     2.14729633    -0.62795598
      9      C     0.57793116    -1.31781315     1.66060763
     10      H     1.65906365    -1.35838435     1.84963843
     11      H     0.07976545    -1.42322178     2.63733986
     12      H     0.30337524    -2.16805996     1.02978955
     13      C     0.60419715     1.22615351     1.79169271
     14      H     0.06939999     1.25864380     2.75426267
     15      H     1.67529495     1.18911130     2.02948831
     16      H     0.39884279     2.15353123     1.25315159

Total System Charge              0.00000

 *** GO1_GOStep25 ***

 Integrated fractional orbital density (NFOD):         1.000

 Energy gradients wrt nuclear displacements
 ==========================================

     Atom      Cartesian (a.u./angstrom)
                 X         Y         Z
 ----------------------------------------
     1 C    -0.000109  0.000032 -0.000133
     2 C    -0.000207 -0.000243  0.000356
     3 Br   -0.000024 -0.000063  0.000068
     4 H     0.000228 -0.000106 -0.000053
     5 C    -0.000231 -0.000159 -0.000232
     6 H    -0.000064 -0.000103  0.000081
     7 H    -0.000092  0.000137  0.000051
     8 H     0.000074 -0.000044 -0.000091
     9 C    -0.000104  0.000474 -0.000295
    10 H     0.000126  0.000000  0.000084
    11 H    -0.000020 -0.000063  0.000277
    12 H     0.000101  0.000016  0.000037
    13 C     0.000672 -0.000227 -0.000348
    14 H    -0.000052  0.000085  0.000105
    15 H    -0.000248  0.000098  0.000069
    16 H    -0.000051  0.000165  0.000023
 ----------------------------------------

 dE(predicted):    -0.66866E-05, dE(actual):    -0.95110E-05, Trust radius:    1.000000, all in a.u.
 
----------------------------------------------------------------------
Geometry Convergence after Step  25       (Hartree/Angstrom,Angstrom)
----------------------------------------------------------------------
current energy                               -2.92997950 Hartree
energy change                      -0.00000951     0.00016000    T
constrained gradient max            0.00066867     0.00010000    F
constrained gradient rms            0.00018645     0.00006667    F
gradient max                        0.00066867
gradient rms                        0.00018645
cart. step max                      0.00787941     0.01000000    T
cart. step rms                      0.00321414     0.00666667    T
 

--------
Geometry
--------
Formula: C5H10Br
Atoms
  Index Symbol   x (angstrom)   y (angstrom)   z (angstrom)
      1      C    -0.48470268     0.02567409    -0.16375619
      2      C     0.20616111    -0.00501655     1.03109645
      3     Br     1.97677545    -0.10579056    -1.33007567
      4      H    -0.76292283    -0.93838002    -0.58877489
      5      C    -1.07117177     1.22989647    -0.83692262
      6      H    -1.09118451     1.08643492    -1.92183187
      7      H    -2.11290527     1.36915772    -0.50367572
      8      H    -0.52031771     2.14895862    -0.62007656
      9      C     0.57802989    -1.31815813     1.66020143
     10      H     1.65972677    -1.36129163     1.84536192
     11      H     0.08312829    -1.42108178     2.63881903
     12      H     0.29881709    -2.16847753     1.03145847
     13      C     0.60612400     1.22629696     1.79082838
     14      H     0.06672610     1.26249023     2.75072277
     15      H     1.67602552     1.18692745     2.03304438
     16      H     0.40560578     2.15302503     1.24922473

Total System Charge              0.00000

 *** GO1_GOStep26 ***

 Integrated fractional orbital density (NFOD):         1.000

 Energy gradients wrt nuclear displacements
 ==========================================

     Atom      Cartesian (a.u./angstrom)
                 X         Y         Z
 ----------------------------------------
     1 C    -0.000079  0.000048 -0.000222
     2 C     0.000048 -0.000317  0.000337
     3 Br   -0.000050 -0.000027  0.000095
     4 H     0.000048 -0.000098  0.000029
     5 C    -0.000162 -0.000202 -0.000181
     6 H    -0.000068 -0.000101  0.000064
     7 H    -0.000065  0.000078  0.000055
     8 H     0.000047 -0.000016 -0.000037
     9 C    -0.000136  0.000455 -0.000388
    10 H     0.000116  0.000016  0.000083
    11 H    -0.000014 -0.000054  0.000239
    12 H     0.000065 -0.000021  0.000055
    13 C     0.000733 -0.000215 -0.000141
    14 H    -0.000106  0.000121  0.000091
[...]
                                    2.70%     1 S              -6.532  1.00     7 H
                                    2.49%     2 P:y             4.589  0.00     4 C
                                   -2.32%     2 S               2.394  0.00    16 H
                                    2.21%     2 S               2.394  0.00    10 H
                                    2.02%     2 P:z             4.589  0.00     5 C
                                    2.00%     1 P:y            -5.239  0.67     1 C
                                    1.64%     1 S              -6.532  1.00    12 H
                                    1.41%     1 P:x            11.051  0.00    10 H
                                   -1.38%     3 S              40.869  0.00    16 H
                                   -1.38%     3 S              40.869  0.00    13 H
                                   -1.25%     1 P:x            -5.239  0.67     2 C
                                   -1.25%     3 S              40.869  0.00    15 H
                                    1.25%     4 P:y             3.720  0.00     6 Br
                                    1.22%     1 P:y            -5.239  0.67     4 C
                                    1.20%     1 P:y            11.051  0.00    14 H
                                    1.18%     1 S              -6.532  1.00    15 H
                                    1.09%     1 P:z            11.051  0.00    16 H
       3.749  0.00    53 A         20.28%     2 P:x             4.589  0.00     4 C
                                   14.03%     1 P:x            -5.239  0.67     4 C
                                   11.76%     4 P:x             3.720  0.00     6 Br
                                    9.64%     4 P:y             3.720  0.00     6 Br
                                    8.56%     2 P:z             4.589  0.00     1 C
                                    7.38%     2 P:x             4.589  0.00     1 C
                                    7.20%     1 S              -6.532  1.00    12 H
                                   -6.48%     2 S               2.394  0.00    12 H
                                   -6.15%     2 P:x             4.589  0.00     2 C
                                    6.07%     4 P:z             3.720  0.00     6 Br
                                    5.65%     1 S              -6.532  1.00    11 H
                                    4.58%     1 P:z            -5.239  0.67     4 C
                                    4.31%     1 S              -6.532  1.00     8 H
                                    1.92%     2 P:z             4.589  0.00     2 C
                                   -1.86%     3 S              40.869  0.00    12 H
                                   -1.74%     2 S               2.394  0.00    11 H
                                   -1.40%     3 S              40.869  0.00    11 H
                                    1.32%     2 P:z             4.589  0.00     4 C
                                    1.28%     2 S               2.394  0.00     9 H
                                    1.24%     2 S               2.394  0.00     8 H
                                   -1.13%     5 S               6.099  0.00     6 Br
                                    1.11%     1 P:x            11.051  0.00    13 H
                                    1.06%     1 S              -6.532  1.00     7 H
                                    1.02%     2 P:z             4.589  0.00     5 C
       3.909  0.00    54 A         24.65%     1 S              -6.532  1.00    10 H
                                   15.31%     1 S              -6.532  1.00    15 H
                                  -12.65%     2 S               2.394  0.00    15 H
                                  -12.01%     2 P:y             4.589  0.00     2 C
                                   10.91%     1 S              -6.532  1.00    16 H
                                    9.23%     1 P:x            -5.239  0.67     5 C
                                    9.16%     1 P:y            -5.239  0.67     3 C
                                   -8.96%     2 S               2.394  0.00    10 H
                                    7.37%     1 P:z            -5.239  0.67     5 C
                                    7.25%     1 S              -6.532  1.00    11 H
                                    6.61%     1 P:y            -5.239  0.67     2 C
                                    5.43%     1 P:z            -5.239  0.67     4 C
                                    5.29%     2 P:y             4.589  0.00     4 C
                                    5.13%     1 P:x            -5.239  0.67     4 C
                                    4.58%     1 P:y            -5.239  0.67     4 C
                                   -4.14%     2 S               2.394  0.00    11 H
                                    4.13%     2 S               2.394  0.00    16 H
                                    4.08%     4 P:x             3.720  0.00     6 Br
                                    3.90%     1 P:x            -5.239  0.67     3 C
                                    3.73%     2 P:x             4.589  0.00     5 C
                                   -3.59%     2 S               2.394  0.00     9 H
                                    3.17%     2 S               2.394  0.00    13 H
                                   -3.14%     2 P:z             4.589  0.00     5 C
                                   -3.10%     2 P:y             4.589  0.00     3 C
                                    2.78%     1 S              -6.532  1.00    14 H
                                   -2.53%     2 S               2.394  0.00    14 H
                                    2.48%     1 P:z            -5.239  0.67     1 C
                                    2.43%     2 S             -13.620  2.00     1 C
                                    2.34%     1 S              -6.532  1.00    12 H
                                    2.28%     2 P:x             4.589  0.00     4 C
                                    2.20%     2 P:y             4.589  0.00     1 C
                                    2.15%     2 S             -13.620  2.00     2 C
                                    1.98%     2 P:z             4.589  0.00     3 C
                                   -1.93%     3 S              10.158  0.00     2 C
                                   -1.85%     3 S              10.158  0.00     1 C
                                   -1.75%     2 P:z             4.589  0.00     4 C
                                    1.63%     4 P:z             3.720  0.00     6 Br
                                   -1.34%     3 S              10.158  0.00     3 C
                                   -1.28%     3 S              40.869  0.00    15 H
                                    1.02%     2 P:y             4.589  0.00     5 C

 Energy gradients wrt nuclear displacements
 ==========================================

     Atom      Cartesian (a.u./angstrom)
                 X         Y         Z
 ----------------------------------------
     1 C     0.000010 -0.000039  0.000042
     2 C    -0.000021  0.000036 -0.000076
     3 Br   -0.000019 -0.000009 -0.000016
     4 H    -0.000004 -0.000035  0.000039
     5 C    -0.000040 -0.000038 -0.000008
     6 H    -0.000054 -0.000068 -0.000002
     7 H    -0.000038 -0.000053  0.000011
     8 H    -0.000046 -0.000039 -0.000036
     9 C     0.000083 -0.000047  0.000084
    10 H     0.000024  0.000057  0.000004
    11 H     0.000052  0.000049  0.000026
    12 H     0.000036  0.000023  0.000046
    13 C    -0.000040  0.000092  0.000026
    14 H     0.000036  0.000031 -0.000051
    15 H     0.000026  0.000039 -0.000050
    16 H    -0.000005  0.000003 -0.000039
 ----------------------------------------



 =======================================================================
 Electrostatic potential at the Nuclei due to electrons and other nuclei
 =======================================================================
  
         Atom                  Potential
         ----                  ---------
     1)   C                  14.74970718
     2)   C                  14.73871715
     3)   Br                180.58217846
     4)   H                   1.09021420
     5)   C                  14.77551843
     6)   H                   1.10345254
     7)   H                   1.09279726
     8)   H                   1.10233974
     9)   C                  14.77532907
    10)   H                   1.09738968
    11)   H                   1.09244224
    12)   H                   1.10284357
    13)   C                  14.77233512
    14)   H                   1.08816198
    15)   H                   1.09355580
    16)   H                   1.09927911
 Mulliken charges used for AMS results%charges...


    =====================
     CALCULATION RESULTS
    =====================

Energy (hartree)            -2.92999534

Gradients (hartree/bohr)
  Index   Atom            d/dx            d/dy            d/dz
      1      C    0.0000051674   -0.0000205799    0.0000220632
      2      C   -0.0000111272    0.0000188326   -0.0000404303
      3     Br   -0.0000102678   -0.0000049415   -0.0000085308
      4      H   -0.0000020951   -0.0000186941    0.0000208292
      5      C   -0.0000209146   -0.0000202164   -0.0000044569
      6      H   -0.0000285138   -0.0000358891   -0.0000010078
      7      H   -0.0000201519   -0.0000282017    0.0000059517
      8      H   -0.0000243884   -0.0000206975   -0.0000190429
      9      C    0.0000438311   -0.0000247387    0.0000445463
     10      H    0.0000129196    0.0000300327    0.0000019985
     11      H    0.0000276273    0.0000260330    0.0000139445
     12      H    0.0000190086    0.0000120851    0.0000244340
     13      C   -0.0000212744    0.0000485436    0.0000139539
     14      H    0.0000188090    0.0000161649   -0.0000269962
     15      H    0.0000138286    0.0000207688   -0.0000264346
     16      H   -0.0000024583    0.0000014983   -0.0000208218


--------------
Atomic charges
--------------
  Index   Atom    Charge
      1      C    0.2891
      2      C    0.0757
      3     Br   -0.3678
      4      H   -0.1787
      5      C    0.6382
      6      H   -0.1843
      7      H   -0.2005
      8      H   -0.2045
      9      C    0.6671
     10      H   -0.1711
     11      H   -0.1997
     12      H   -0.2295
     13      C    0.6634
     14      H   -0.1939
     15      H   -0.1788
     16      H   -0.2247


Dipole moment vector    (Debye):    -3.24225052    0.50844492    3.20653020
              magnitude (Debye):     4.58830476


-----------------------
Molecular orbitals info
-----------------------
n orbitals:              296
n spin:                    1

Note: only printing virtual orbitals with
      energy smaller than HOMO + 100. eV

Note: fractional orbital occupations. HOMO and LUMO labels are not well defined!

HOMO (eV):              -5.7846
LUMO (eV):              -4.9994
HOMO-LUMO gap (eV):      0.7852

   Index   Energy (eV)    Occupation
     200       93.9309         0.000       
     199       93.5471         0.000       
     198       93.3513         0.000       
     197       92.7103         0.000       
     196       91.1910         0.000       
     195       90.3585         0.000       
     194       89.9284         0.000       
     193       88.2239         0.000       
     192       87.2536         0.000       
     191       86.5654         0.000       
     190       86.4019         0.000       
     189       84.7365         0.000       
     188       84.4458         0.000       
     187       83.3652         0.000       
     186       83.0129         0.000       
     185       82.3233         0.000       
     184       81.9008         0.000       
     183       81.2213         0.000       
     182       80.6010         0.000       
     181       80.1556         0.000       
     180       79.6410         0.000       
     179       78.8074         0.000       
     178       78.5529         0.000       
     177       78.0691         0.000       
     176       77.8008         0.000       
     175       77.6284         0.000       
     174       77.4106         0.000       
     173       76.8771         0.000       
     172       76.4061         0.000       
     171       75.9287         0.000       
     170       75.3132         0.000       
     169       74.7323         0.000       
     168       73.8556         0.000       
     167       73.7434         0.000       
     166       72.8712         0.000       
     165       71.6569         0.000       
     164       69.6094         0.000       
     163       68.5615         0.000       
     162       66.8155         0.000       
     161       65.9626         0.000       
     160       63.9404         0.000       
     159       63.8002         0.000       
     158       61.8664         0.000       
     157       61.0788         0.000       
     156       59.8649         0.000       
     155       59.1104         0.000       
     154       58.5831         0.000       
     153       57.7772         0.000       
     152       56.7683         0.000       
     151       56.3565         0.000       
     150       55.9930         0.000       
     149       54.9672         0.000       
     148       54.7150         0.000       
     147       53.8548         0.000       
     146       53.1770         0.000       
     145       52.6158         0.000       
     144       51.5387         0.000       
     143       51.1237         0.000       
     142       50.4750         0.000       
     141       49.8197         0.000       
     140       48.6118         0.000       
     139       48.1546         0.000       
     138       47.3119         0.000       
     137       47.1874         0.000       
     136       46.1744         0.000       
     135       45.6787         0.000       
     134       43.8231         0.000       
     133       43.4342         0.000       
     132       42.6549         0.000       
     131       40.9153         0.000       
     130       40.2003         0.000       
     129       38.7030         0.000       
     128       38.6122         0.000       
     127       37.9851         0.000       
     126       37.1955         0.000       
     125       36.9198         0.000       
     124       36.5316         0.000       
     123       35.3849         0.000       
     122       34.9784         0.000       
     121       34.5383         0.000       
     120       34.0520         0.000       
     119       33.0784         0.000       
     118       31.9813         0.000       
     117       31.8045         0.000       
     116       31.4231         0.000       
     115       31.1266         0.000       
     114       30.9382         0.000       
     113       30.1475         0.000       
     112       30.0446         0.000       
     111       29.7190         0.000       
     110       29.2881         0.000       
     109       28.8561         0.000       
     108       28.3541         0.000       
     107       28.1465         0.000       
     106       27.7412         0.000       
     105       27.3460         0.000       
     104       26.6263         0.000       
     103       26.2099         0.000       
     102       26.0875         0.000       
     101       25.4862         0.000       
     100       25.4119         0.000       
      99       25.0139         0.000       
      98       24.6923         0.000       
      97       23.7313         0.000       
      96       23.4351         0.000       
      95       23.2782         0.000       
      94       22.7198         0.000       
      93       21.7235         0.000       
      92       21.0627         0.000       
      91       20.6233         0.000       
      90       20.4705         0.000       
      89       17.2949         0.000       
      88       16.7255         0.000       
      87       16.4265         0.000       
      86       15.5532         0.000       
      85       14.9522         0.000       
      84       14.1167         0.000       
      83       13.5894         0.000       
      82       13.1962         0.000       
      81       12.6837         0.000       
      80       12.2849         0.000       
      79       11.6166         0.000       
      78       11.2671         0.000       
      77       10.9984         0.000       
      76       10.7364         0.000       
      75       10.5467         0.000       
      74       10.0893         0.000       
      73       10.0020         0.000       
      72        9.6358         0.000       
      71        9.4994         0.000       
      70        9.3755         0.000       
      69        9.1371         0.000       
      68        8.9152         0.000       
      67        8.8281         0.000       
      66        8.4862         0.000       
      65        7.2465         0.000       
      64        7.1781         0.000       
      63        6.9486         0.000       
      62        6.8022         0.000       
      61        6.2635         0.000       
      60        6.1082         0.000       
      59        5.7404         0.000       
      58        5.5687         0.000       
      57        5.0501         0.000       
      56        4.6586         0.000       
      55        4.4582         0.000       
      54        3.9086         0.000       
      53        3.7490         0.000       
      52        3.5008         0.000       
      51        3.2343         0.000       
      50        2.8279         0.000       
      49        2.6918         0.000       
      48        2.3493         0.000       
      47        2.2085         0.000       
      46        1.5674         0.000       
      45        1.2465         0.000       
      44        1.0292         0.000       
      43        0.8604         0.000       
      42        0.3883         0.000       
      41        0.1602         0.000       
      40       -0.4612         0.000       
      39       -1.3987         0.000       
      38       -4.9994         1.000 < LUMO
      37       -5.7846         2.000 < HOMO
      36       -5.8391         2.000       
      35       -7.2286         2.000       
      34       -8.7594         2.000       
      33       -9.2212         2.000       
      32       -9.5062         2.000       
      31       -9.8241         2.000       
      30       -9.8468         2.000       
      29      -10.3996         2.000       
      28      -11.2170         2.000       
      27      -11.2548         2.000       
      26      -11.9246         2.000       
      25      -13.2591         2.000       
      24      -16.2288         2.000       
      23      -17.5882         2.000       
      22      -17.9544         2.000       
      21      -18.7627         2.000       
      20      -20.9066         2.000       
      19      -64.3005         2.000       
      18      -64.3009         2.000       
      17      -64.4924         2.000       
      16      -64.5023         2.000       
      15      -64.5626         2.000       
      14     -170.8616         2.000       
      13     -170.8749         2.000       
      12     -171.1346         2.000       
      11     -234.7285         2.000       
      10     -270.2712         2.000       
       9     -270.2884         2.000       
       8     -270.3622         2.000       
       7     -271.1471         2.000       
       6     -271.4199         2.000       
       5    -1524.9797         2.000       
       4    -1524.9844         2.000       
       3    -1525.0714         2.000       
       2    -1728.0984         2.000       
       1   -13294.6116         2.000       

AMS application finished. Exiting.
NORMAL TERMINATION
     Total cpu time:    1433.28
  Total system time:       7.44
 Total elapsed time:    1445.17
NORMAL TERMINATION with warnings
