srun: Job 662471 step creation still disabled, retrying (Requested nodes are busy)
srun: Job 662471 step creation still disabled, retrying (Requested nodes are busy)
srun: Job 662471 step creation still disabled, retrying (Requested nodes are busy)
srun: Job 662471 step creation still disabled, retrying (Requested nodes are busy)
srun: Job 662471 step creation still disabled, retrying (Requested nodes are busy)
srun: Job 662471 step creation still disabled, retrying (Requested nodes are busy)
srun: Job 662471 step creation still disabled, retrying (Requested nodes are busy)
srun: Job 662471 step creation still disabled, retrying (Requested nodes are busy)
srun: Job 662471 step creation still disabled, retrying (Requested nodes are busy)
srun: Job 662471 step creation still disabled, retrying (Requested nodes are busy)
srun: Job 662471 step creation still disabled, retrying (Requested nodes are busy)
srun: Job 662471 step creation still disabled, retrying (Requested nodes are busy)
srun: Job 662471 step creation still disabled, retrying (Requested nodes are busy)
srun: Job 662471 step creation still disabled, retrying (Requested nodes are busy)
srun: Step created for StepId=662471.78

 *******************************************************************************
 *                                                                             *
 *  --------------------------------                                           *
 *   Amsterdam Modeling Suite (AMS)              2026.103                      *
 *  --------------------------------                                           *
 *                                               r260501 2026-05-01 873454b5   *
 *                                                                             *
 *                                                                             *
 *                              =================                              *
 *                              |               |                              *
 *                              |     A M S     |                              *
 *                              |               |                              *
 *                              =================                              *
 *                                                                             *
 *                                                                             *
 *   Online information and documentation:  https://www.scm.com/support/       *
 *   E-mail:  support@scm.com   info@scm.com                                   *
 *                                                                             *
 *   Scientific publications using AMS results must be properly referenced     *
 *   See the User Manuals (or the web site) for recommended citations          *
 *   The terms and conditions of the End User License Agreement apply to       *
 *   the use of AMS, https://www.scm.com/license-terms/                        *
 *                                                                             *
 **********************  x86_64_linux_intel / intelmpi  ************************
 
 Licensed to: Jong-June Jeon / University of Seoul 2026-06-02 13:44:15
 SCM User ID: u30731
  
 AMS 2026.103  RunTime: Jun03-2026 22:48:37  ShM Nodes: 1  Procs: 1

 AMS jobname: c2_fragB_ts
 AMS jobid  : 100186765

 Start   directory: /gpfs/home1/yeseo1ee/projects/eda-asm-prediction/ADF_800/adf_outputs/batch_004/qmrxn20_e2_B_E_A_D_C_B/
 Results directory: /gpfs/home1/yeseo1ee/projects/eda-asm-prediction/ADF_800/adf_outputs/batch_004/qmrxn20_e2_B_E_A_D_C_B/c2_fragB_ts.results/
 Scratch directory: /tmp/amstmp_c2_fragB_ts_kid0.100186765/

 RNG seed: -1586281247 -1586353825 -1511576923 711140626 -1934317757 -402135438 1921966299 1578265087



                      ************************************************************************
                      *  ADF 2026.103  RunTime: Jun03-2026 22:48:37  ShM Nodes: 1  Procs: 1  *
                      ************************************************************************
  

       ****************************
       * SINGLE POINT CALCULATION *
       ****************************

--------
Geometry
--------
Formula: C3H6BrN2O2
Atoms
  Index Symbol   x (angstrom)   y (angstrom)   z (angstrom)
      1      C    -0.24154411     0.02850356    -0.30385746
      2      C    -0.19072452    -0.11316113     1.13220862
      3     Br     1.68133685     0.26340718    -1.24501827
      4      H     0.15692913     0.84219055     1.54061141
      5      N    -0.99218544     1.12252720    -0.83039643
      6      H    -0.42369903     1.95485674    -0.74815781
      7      H    -1.80402081     1.20736346    -0.21199405
      8      C     0.50855910    -1.29667352     1.76469492
      9      H     1.54214435    -1.40347176     1.41036400
     10      H     0.52966980    -1.16521804     2.85133991
     11      H    -0.00326723    -2.23875821     1.55865346
     12      N    -0.75545255    -1.27150494    -0.94108780
     13      O    -1.90381597    -1.25043077    -1.37300812
     14      O    -0.03698884    -2.26671982    -0.89901238

Total System Charge              0.00000


----------------
ADF Engine Input
----------------
 
   Basis
     Type TZ2P
     Core None
   End
   XC
     GGA BLYP
     Dispersion GRIMME3 BJDAMP
   End
   Symmetry NOSYM
   NumericalQuality Normal
   Unrestricted No
   SCF
     Iterations 200
     Converge 1.0e-6
   End
   Save TAPE21
 

 Title: *** (NO TITLE) ***

 *** adf ***



 ===========================
 A T T A C H E D   F I L E S
 ===========================
  



 ===============================
 M O D E L   P A R A M E T E R S
 ===============================
  
 DENSITY FUNCTIONAL POTENTIAL (scf)
    LDA:                               Exchange only                           == Not Default ==
    Gradient Corrections:              Becke88 LYP                             == Not Default ==

 SPIN  (restricted / unrestr.)
    Molecule:                          Restricted                               
    Fragments:                         Restricted                               

 OTHER ASPECTS
    Relativistic Corrections:          scalar (ZORA,MAPA)                       

    Nuclear Charge Density Model:      Point Charge Nuclei                      
    Core Treatment:                    Frozen Orbital(s)                        

    Hyperfine or Zeeman Interaction:   ---                                      

 Settings for Grimme D3 dispersion correction

      damping                        BJ
      s6                          1.000
      s8                          2.700
      a1                          0.430
      a2                          4.236

 Other (technical) parameters

      alpha                      14.000
      version                         4
 


 Fragment File(s)
 ----------------
 C:
         file : /gpfs/home1/yeseo1ee/projects/eda-asm-prediction/ADF_800/adf_outputs/batch_004/qmrxn20_e2_B_E_A_D_C_B/c2_fragB_ts.results/t21.50BA88D5.C
         jobid: 0
         title: Carbon (TZ2P)
 Br:
         file : /gpfs/home1/yeseo1ee/projects/eda-asm-prediction/ADF_800/adf_outputs/batch_004/qmrxn20_e2_B_E_A_D_C_B/c2_fragB_ts.results/t21.42F58B50.Br
         jobid: 0
         title: Bromine (TZ2P)
 H:
         file : /gpfs/home1/yeseo1ee/projects/eda-asm-prediction/ADF_800/adf_outputs/batch_004/qmrxn20_e2_B_E_A_D_C_B/c2_fragB_ts.results/t21.6F35CCAB.H
         jobid: 0
         title: Hydrogen (TZ2P)
 N:
         file : /gpfs/home1/yeseo1ee/projects/eda-asm-prediction/ADF_800/adf_outputs/batch_004/qmrxn20_e2_B_E_A_D_C_B/c2_fragB_ts.results/t21.44EAA48D.N
         jobid: 0
         title: Nitrogen (TZ2P)
 O:
         file : /gpfs/home1/yeseo1ee/projects/eda-asm-prediction/ADF_800/adf_outputs/batch_004/qmrxn20_e2_B_E_A_D_C_B/c2_fragB_ts.results/t21.6E90ABAE.O
         jobid: 0
         title: Oxygen (TZ2P)



 ===============
 G E O M E T R Y  ***  3D  Molecule  ***
 ===============
  

 ATOMS
 =====                            X Y Z                    CHARGE
                                (Angstrom)             Nucl     +Core       At.Mass
                       --------------------------    ----------------       -------
    1  C              -0.2415    0.0285   -0.3039      6.00      6.00       12.0000
    2  C              -0.1907   -0.1132    1.1322      6.00      6.00       12.0000
    3  Br              1.6813    0.2634   -1.2450     35.00     35.00       78.9183
    4  H               0.1569    0.8422    1.5406      1.00      1.00        1.0078
    5  N              -0.9922    1.1225   -0.8304      7.00      7.00       14.0031
    6  H              -0.4237    1.9549   -0.7482      1.00      1.00        1.0078
    7  H              -1.8040    1.2074   -0.2120      1.00      1.00        1.0078
    8  C               0.5086   -1.2967    1.7647      6.00      6.00       12.0000
    9  H               1.5421   -1.4035    1.4104      1.00      1.00        1.0078
   10  H               0.5297   -1.1652    2.8513      1.00      1.00        1.0078
   11  H              -0.0033   -2.2388    1.5587      1.00      1.00        1.0078
   12  N              -0.7555   -1.2715   -0.9411      7.00      7.00       14.0031
   13  O              -1.9038   -1.2504   -1.3730      8.00      8.00       15.9949
   14  O              -0.0370   -2.2667   -0.8990      8.00      8.00       15.9949


 FRAGMENTS
 =========                                     Atoms in this Fragment     Cart. coord.s (Angstrom)
                                               -------------------------------------------------------
    1  C                                                 1  C           -0.2415    0.0285   -0.3039
    2  C                                                 2  C           -0.1907   -0.1132    1.1322
    3  C                                                 8  C            0.5086   -1.2967    1.7647
    4  Br                                                3  Br           1.6813    0.2634   -1.2450
    5  H                                                 4  H            0.1569    0.8422    1.5406
    6  H                                                 6  H           -0.4237    1.9549   -0.7482
    7  H                                                 7  H           -1.8040    1.2074   -0.2120
    8  H                                                 9  H            1.5421   -1.4035    1.4104
    9  H                                                10  H            0.5297   -1.1652    2.8513
   10  H                                                11  H           -0.0033   -2.2388    1.5587
   11  N                                                 5  N           -0.9922    1.1225   -0.8304
   12  N                                                12  N           -0.7555   -1.2715   -0.9411
   13  O                                                13  O           -1.9038   -1.2504   -1.3730
   14  O                                                14  O           -0.0370   -2.2667   -0.8990


 Interatomic Distance Matrix (Angstrom)
 --------------------------------------

   1)     0.000
   2)     1.444   0.000
   3)     2.154   3.049   0.000
   4)     2.055   1.096   3.228   0.000
   5)     1.427   2.454   2.839   2.650   0.000
   6)     1.985   2.805   2.746   2.610   1.011   0.000
   7)     1.959   2.481   3.756   2.655   1.024   1.659   0.000
   8)     2.569   1.513   3.587   2.179   3.852   4.214   3.940   0.000
   9)     2.858   2.178   3.138   2.642   4.222   4.450   4.544   1.098   0.000
  10)     3.460   2.140   4.489   2.426   4.594   4.858   4.523   1.095   1.777   0.000
  11)     2.944   2.176   4.118   3.085   4.241   4.805   4.272   1.092   1.763   1.763
          0.000
  12)     1.536   2.441   2.896   3.385   2.408   3.249   2.789   2.987   3.290   4.006
          2.784   0.000
  13)     2.354   3.241   3.894   4.137   2.599   3.585   2.720   3.958   4.432   4.876
          3.631   1.227   0.000
  14)     2.380   2.964   3.078   3.957   3.522   4.242   3.958   2.887   2.928   3.950
          2.458   1.228   2.178   0.000

 Min. Distance =    1.0113
 Max. Distance =    4.8759



 =====================================
 S Y M M E T R Y ,   E L E C T R O N S
 =====================================
  
 Symmetry: NOSYM

 Irreducible Representations, including subspecies
 -------------------------------------------------
 A


 Configuration of Valence Electrons
 ==================================
 ( determined in the SCF procedure )

 Total:   89

 ===============
 W A R N I N G :
 ===============

 The number of electrons does not correspond to doubly occupied orbitals,
 i.e. there would be one orbital with 0.5-alpha and 0.5-beta electrons.

 Normally, this corresponds to a doublet that should be treated within
 the UNRESTRICTED framework. For example, for a doublet:

   CHARGE   0.0 1.0
   Unrestricted

 See the online manual (http://www.scm.com) for more information on
 how to use the UNRESTRICTED framework.

 If you are definitely certain that for this job the restricted open-shell
 is appropriate, you can overcome this warning by placing on input:
   ALLOW ROKS

 In case of doubt, contact support@scm.com with this problem.

 Net Charge: 0 (Nuclei minus Electrons)

 Aufbau principle for MO occupations will be applied through SCF cycle no.     100
 Thereafter, the program will assign electrons to MOs that are spatially
 similar to the occupied MOs in a "reference" cycle ("KeepOrbitals").
 The reference cycle is always the PREVIOUS cycle: it will evolve with
 the SCF procedure.
 ***************************************************************************************************



                                      ****************************************
                                      *  B U I L D : (Fragments, Functions)  *
                                      ****************************************
  



 =======
 S F O s  ***  (Symmetrized Fragment Orbitals)  ***
 =======
  
 SFOs are linear combinations of (valence) Fragment Orbitals (FOs), such that the SFOs transform as the
 irreducible representations of the (molecular) symmetry group. Each SFO is therefore characterized by
 an irrep of the molecule and by a few (or only one) generating FOs.
 The SFOs constitute a symmetry-adapted basis for the Fock matrix. The MO eigenvector coefficients in
 this basis provide a direct interpretation of the MOs in terms of Frontier Orbital Theory.

 The SFOs are combined with auxiliary Core Functions (CFs) to ensure orthogonalization on the (frozen)
 Core Orbitals (COs). The Core-orthogonalized SFOs (CSFOs) constitute the true Fock basis.

 The FOs, and hence also the (C)SFOs are combinations of the elementary basis functions (BAS). The basis
 functions that participate in the description of the SFOs depend on the irrep. The indices of the
 involved functions are printed below for each irrep.
 (The complete list of primitive basis functions is printed in another section)

 Total nr. of (C)SFOs (summation over all irreps) :   304

 NOTE: a (C)SFO that is defined as a combination of more than one FO is usually NOT normalized.



                                       === A ===
 Nr. of SFOs :  304
 Cartesian basis functions that participate in this irrep (total number =   345) :
      1     2     3     4     5     6     9    12     7    10
     13     8    11    14    15    16    17    18    19    20
     21    22    23    24    25    26    27    28    29    30
     31    32    33    34    35    36    39    42    37    40
     43    38    41    44    45    46    47    48    49    50
     51    52    53    54    55    56    57    58    59    60
     61    62    63    64    65    66    69    72    67    70
     73    68    71    74    75    76    77    78    79    80
     81    82    83    84    85    86    87    88    89    90
     91    92    93   100   101   126   127   128    94    97
    102   105   129   132   135    95    98   103   106   130
    133   136    96    99   104   107   131   134   137   108
    114   120   138   109   115   121   139   110   116   122
    140   111   117   123   141   112   118   124   142   113
    119   125   143   144   145   146   147   148   149   150
    151   152   153   154   155   156   157   158   159   160
    161   162   163   164   165   166   167   168   169   170
    171   172   173   174   175   176   177   178   179   180
    181   182   183   184   185   186   187   188   189   190
    191   192   193   194   195   196   197   198   199   200
    201   202   203   204   205   206   207   208   209   210
    211   212   213   214   215   216   217   218   219   220
    221   222   223   224   225   226   227   228   229   230
    231   234   237   232   235   238   233   236   239   240
    241   242   243   244   245   246   247   248   249   250
    251   252   253   254   255   256   257   258   259   260
    261   264   267   262   265   268   263   266   269   270
    271   272   273   274   275   276   277   278   279   280
    281   282   283   284   285   286   287   288   289   290
    291   294   297   292   295   298   293   296   299   300
    301   302   303   304   305   306   307   308   309   310
    311   312   313   314   315   316   317   318   319   320
    321   324   327   322   325   328   323   326   329   330
    331   332   333   334   335   336   337   338   339   340
    341   342   343   344   345

    SFO  (index         Fragment          Generating    Expansion in Fragment Orbitals
  indx  incl.CFs)   Occup   Orb.Energy   FragmentType  Coeff.   Orbital     on Fragment
 --------------------------------------------------------------------------------------
     1       1      2.000     -10.066 au  C             1.00      1 S               1
                        (    -273.921 eV)
     2       2      2.000      -0.501 au  C             1.00      2 S               1
                        (     -13.620 eV)
     3       3       --         0.373 au  C             1.00      3 S               1
                        (      10.158 eV)
     4       4       --         5.405 au  C             1.00      4 S               1
                        (     147.073 eV)
     5       5       --        49.848 au  C             1.00      5 S               1
                        (    1356.422 eV)
     6       6      0.667      -0.193 au  C             1.00      1 P:x             1
                        (      -5.239 eV)
     7       7       --         0.169 au  C             1.00      2 P:x             1
                        (       4.589 eV)
     8       8       --         2.013 au  C             1.00      3 P:x             1
                        (      54.789 eV)
     9       9      0.667      -0.193 au  C             1.00      1 P:y             1
                        (      -5.239 eV)
    10      10       --         0.169 au  C             1.00      2 P:y             1
                        (       4.589 eV)
    11      11       --         2.013 au  C             1.00      3 P:y             1
                        (      54.789 eV)
    12      12      0.667      -0.193 au  C             1.00      1 P:z             1
                        (      -5.239 eV)
    13      13       --         0.169 au  C             1.00      2 P:z             1
                        (       4.589 eV)
    14      14       --         2.013 au  C             1.00      3 P:z             1
                        (      54.789 eV)
    15      15       --         1.243 au  C             1.00      1 D:z2            1
                        (      33.824 eV)
    16      16       --         1.243 au  C             1.00      1 D:x2-y2         1
                        (      33.824 eV)
    17      17       --         1.243 au  C             1.00      1 D:xy            1
                        (      33.824 eV)
    18      18       --         1.243 au  C             1.00      1 D:xz            1
                        (      33.824 eV)
    19      19       --         1.243 au  C             1.00      1 D:yz            1
                        (      33.824 eV)
    20      20       --         4.016 au  C             1.00      1 F:z3            1
                        (     109.271 eV)
    21      21       --         4.016 au  C             1.00      1 F:z             1
                        (     109.271 eV)
    22      22       --         4.016 au  C             1.00      1 F:xyz           1
                        (     109.271 eV)
    23      23       --         4.016 au  C             1.00      1 F:z2x           1
                        (     109.271 eV)
    24      24       --         4.016 au  C             1.00      1 F:z2y           1
                        (     109.271 eV)
    25      25       --         4.016 au  C             1.00      1 F:x             1
                        (     109.271 eV)
    26      26       --         4.016 au  C             1.00      1 F:y             1
                        (     109.271 eV)
    27      27      2.000     -10.066 au  C             1.00      1 S               2
                        (    -273.921 eV)
    28      28      2.000      -0.501 au  C             1.00      2 S               2
                        (     -13.620 eV)
    29      29       --         0.373 au  C             1.00      3 S               2
                        (      10.158 eV)
    30      30       --         5.405 au  C             1.00      4 S               2
                        (     147.073 eV)
    31      31       --        49.848 au  C             1.00      5 S               2
                        (    1356.422 eV)
    32      32      0.667      -0.193 au  C             1.00      1 P:x             2
                        (      -5.239 eV)
    33      33       --         0.169 au  C             1.00      2 P:x             2
                        (       4.589 eV)
    34      34       --         2.013 au  C             1.00      3 P:x             2
                        (      54.789 eV)
    35      35      0.667      -0.193 au  C             1.00      1 P:y             2
                        (      -5.239 eV)
    36      36       --         0.169 au  C             1.00      2 P:y             2
                        (       4.589 eV)
    37      37       --         2.013 au  C             1.00      3 P:y             2
                        (      54.789 eV)
    38      38      0.667      -0.193 au  C             1.00      1 P:z             2
                        (      -5.239 eV)
    39      39       --         0.169 au  C             1.00      2 P:z             2
                        (       4.589 eV)
    40      40       --         2.013 au  C             1.00      3 P:z             2
                        (      54.789 eV)
    41      41       --         1.243 au  C             1.00      1 D:z2            2
                        (      33.824 eV)
    42      42       --         1.243 au  C             1.00      1 D:x2-y2         2
                        (      33.824 eV)
    43      43       --         1.243 au  C             1.00      1 D:xy            2
                        (      33.824 eV)
    44      44       --         1.243 au  C             1.00      1 D:xz            2
                        (      33.824 eV)
    45      45       --         1.243 au  C             1.00      1 D:yz            2
                        (      33.824 eV)
    46      46       --         4.016 au  C             1.00      1 F:z3            2
                        (     109.271 eV)
    47      47       --         4.016 au  C             1.00      1 F:z             2
                        (     109.271 eV)
    48      48       --         4.016 au  C             1.00      1 F:xyz           2
                        (     109.271 eV)
    49      49       --         4.016 au  C             1.00      1 F:z2x           2
                        (     109.271 eV)
    50      50       --         4.016 au  C             1.00      1 F:z2y           2
                        (     109.271 eV)
    51      51       --         4.016 au  C             1.00      1 F:x             2
                        (     109.271 eV)
    52      52       --         4.016 au  C             1.00      1 F:y             2
                        (     109.271 eV)
    53      53      2.000     -10.066 au  C             1.00      1 S               3
                        (    -273.921 eV)
    54      54      2.000      -0.501 au  C             1.00      2 S               3
                        (     -13.620 eV)
    55      55       --         0.373 au  C             1.00      3 S               3
                        (      10.158 eV)
    56      56       --         5.405 au  C             1.00      4 S               3
                        (     147.073 eV)
    57      57       --        49.848 au  C             1.00      5 S               3
                        (    1356.422 eV)
    58      58      0.667      -0.193 au  C             1.00      1 P:x             3
                        (      -5.239 eV)
    59      59       --         0.169 au  C             1.00      2 P:x             3
                        (       4.589 eV)
    60      60       --         2.013 au  C             1.00      3 P:x             3
                        (      54.789 eV)
    61      61      0.667      -0.193 au  C             1.00      1 P:y             3
                        (      -5.239 eV)
    62      62       --         0.169 au  C             1.00      2 P:y             3
                        (       4.589 eV)
    63      63       --         2.013 au  C             1.00      3 P:y             3
                        (      54.789 eV)
    64      64      0.667      -0.193 au  C             1.00      1 P:z             3
                        (      -5.239 eV)
    65      65       --         0.169 au  C             1.00      2 P:z             3
                        (       4.589 eV)
    66      66       --         2.013 au  C             1.00      3 P:z             3
                        (      54.789 eV)
    67      67       --         1.243 au  C             1.00      1 D:z2            3
                        (      33.824 eV)
    68      68       --         1.243 au  C             1.00      1 D:x2-y2         3
                        (      33.824 eV)
    69      69       --         1.243 au  C             1.00      1 D:xy            3
                        (      33.824 eV)
    70      70       --         1.243 au  C             1.00      1 D:xz            3
                        (      33.824 eV)
    71      71       --         1.243 au  C             1.00      1 D:yz            3
                        (      33.824 eV)
    72      72       --         4.016 au  C             1.00      1 F:z3            3
                        (     109.271 eV)
    73      73       --         4.016 au  C             1.00      1 F:z             3
                        (     109.271 eV)
    74      74       --         4.016 au  C             1.00      1 F:xyz           3
                        (     109.271 eV)
    75      75       --         4.016 au  C             1.00      1 F:z2x           3
                        (     109.271 eV)
    76      76       --         4.016 au  C             1.00      1 F:z2y           3
                        (     109.271 eV)
    77      77       --         4.016 au  C             1.00      1 F:x             3
                        (     109.271 eV)
    78      78       --         4.016 au  C             1.00      1 F:y             3
                        (     109.271 eV)
    79      79      2.000    -488.642 au  Br            1.00      1 S               4
                        (  -13296.634 eV)
    80      80      2.000     -63.585 au  Br            1.00      2 S               4
                        (   -1730.246 eV)
    81      81      2.000      -8.709 au  Br            1.00      3 S               4
                        (    -236.987 eV)
    82      82      2.000      -0.733 au  Br            1.00      4 S               4
                        (     -19.946 eV)
    83      83       --         0.224 au  Br            1.00      5 S               4
                        (       6.099 eV)
    84      84       --         2.414 au  Br            1.00      6 S               4
                        (      65.683 eV)
    85      85       --        13.546 au  Br            1.00      7 S               4
                        (     368.609 eV)
    86      86       --       615.209 au  Br            1.00      8 S               4
                        (   16740.684 eV)
    87      87      2.000     -56.116 au  Br            1.00      1 P:x             4
                        (   -1526.987 eV)
    88      88      2.000      -6.365 au  Br            1.00      2 P:x             4
                        (    -173.205 eV)
    89      89      1.667      -0.284 au  Br            1.00      3 P:x             4
                        (      -7.716 eV)
    90      90       --         0.137 au  Br            1.00      4 P:x             4
                        (       3.720 eV)
    91      91       --         1.208 au  Br            1.00      5 P:x             4
                        (      32.874 eV)
    92      92       --         8.734 au  Br            1.00      6 P:x             4
                        (     237.661 eV)
    93      93       --        95.627 au  Br            1.00      7 P:x             4
                        (    2602.141 eV)
    94      94      2.000     -56.116 au  Br            1.00      1 P:y             4
                        (   -1526.987 eV)
    95      95      2.000      -6.365 au  Br            1.00      2 P:y             4
                        (    -173.205 eV)
    96      96      1.667      -0.284 au  Br            1.00      3 P:y             4
                        (      -7.716 eV)
    97      97       --         0.137 au  Br            1.00      4 P:y             4
                        (       3.720 eV)
    98      98       --         1.208 au  Br            1.00      5 P:y             4
                        (      32.874 eV)
    99      99       --         8.734 au  Br            1.00      6 P:y             4
                        (     237.661 eV)
   100     100       --        95.627 au  Br            1.00      7 P:y             4
                        (    2602.141 eV)
   101     101      2.000     -56.116 au  Br            1.00      1 P:z             4
                        (   -1526.987 eV)
   102     102      2.000      -6.365 au  Br            1.00      2 P:z             4
                        (    -173.205 eV)
   103     103      1.667      -0.284 au  Br            1.00      3 P:z             4
                        (      -7.716 eV)
   104     104       --         0.137 au  Br            1.00      4 P:z             4
                        (       3.720 eV)
   105     105       --         1.208 au  Br            1.00      5 P:z             4
                        (      32.874 eV)
   106     106       --         8.734 au  Br            1.00      6 P:z             4
                        (     237.661 eV)
   107     107       --        95.627 au  Br            1.00      7 P:z             4
                        (    2602.141 eV)
   108     108      2.000      -2.452 au  Br            1.00      1 D:z2            4
                        (     -66.719 eV)
   109     109       --         0.270 au  Br            1.00      2 D:z2            4
                        (       7.341 eV)
   110     110       --         2.706 au  Br            1.00      3 D:z2            4
                        (      73.633 eV)
   111     111       --        20.525 au  Br            1.00      4 D:z2            4
                        (     558.519 eV)
   112     112      2.000      -2.452 au  Br            1.00      1 D:x2-y2         4
                        (     -66.719 eV)
   113     113       --         0.270 au  Br            1.00      2 D:x2-y2         4
                        (       7.341 eV)
   114     114       --         2.706 au  Br            1.00      3 D:x2-y2         4
                        (      73.633 eV)
   115     115       --        20.525 au  Br            1.00      4 D:x2-y2         4
                        (     558.519 eV)
   116     116      2.000      -2.452 au  Br            1.00      1 D:xy            4
                        (     -66.719 eV)
   117     117       --         0.270 au  Br            1.00      2 D:xy            4
                        (       7.341 eV)
   118     118       --         2.706 au  Br            1.00      3 D:xy            4
                        (      73.633 eV)
   119     119       --        20.525 au  Br            1.00      4 D:xy            4
                        (     558.519 eV)
   120     120      2.000      -2.452 au  Br            1.00      1 D:xz            4
                        (     -66.719 eV)
   121     121       --         0.270 au  Br            1.00      2 D:xz            4
                        (       7.341 eV)
   122     122       --         2.706 au  Br            1.00      3 D:xz            4
                        (      73.633 eV)
   123     123       --        20.525 au  Br            1.00      4 D:xz            4
                        (     558.519 eV)
   124     124      2.000      -2.452 au  Br            1.00      1 D:yz            4
                        (     -66.719 eV)
   125     125       --         0.270 au  Br            1.00      2 D:yz            4
                        (       7.341 eV)
   126     126       --         2.706 au  Br            1.00      3 D:yz            4
                        (      73.633 eV)
   127     127       --        20.525 au  Br            1.00      4 D:yz            4
                        (     558.519 eV)
   128     128       --         0.857 au  Br            1.00      1 F:z3            4
                        (      23.313 eV)
   129     129       --         0.857 au  Br            1.00      1 F:z             4
                        (      23.313 eV)
   130     130       --         0.857 au  Br            1.00      1 F:xyz           4
                        (      23.313 eV)
   131     131       --         0.857 au  Br            1.00      1 F:z2x           4
                        (      23.313 eV)
   132     132       --         0.857 au  Br            1.00      1 F:z2y           4
                        (      23.313 eV)
   133     133       --         0.857 au  Br            1.00      1 F:x             4
                        (      23.313 eV)
   134     134       --         0.857 au  Br            1.00      1 F:y             4
                        (      23.313 eV)
   135     135      1.000      -0.240 au  H             1.00      1 S               5
                        (      -6.532 eV)
   136     136       --         0.088 au  H             1.00      2 S               5
                        (       2.394 eV)
   137     137       --         1.502 au  H             1.00      3 S               5
                        (      40.869 eV)
   138     138       --         0.406 au  H             1.00      1 P:x             5
                        (      11.051 eV)
   139     139       --         0.406 au  H             1.00      1 P:y             5
                        (      11.051 eV)
   140     140       --         0.406 au  H             1.00      1 P:z             5
                        (      11.051 eV)
   141     141       --         2.569 au  H             1.00      1 D:z2            5
                        (      69.917 eV)
   142     142       --         2.569 au  H             1.00      1 D:x2-y2         5
                        (      69.917 eV)
   143     143       --         2.569 au  H             1.00      1 D:xy            5
                        (      69.917 eV)
   144     144       --         2.569 au  H             1.00      1 D:xz            5
                        (      69.917 eV)
   145     145       --         2.569 au  H             1.00      1 D:yz            5
                        (      69.917 eV)
   146     146      1.000      -0.240 au  H             1.00      1 S               6
                        (      -6.532 eV)
   147     147       --         0.088 au  H             1.00      2 S               6
                        (       2.394 eV)
   148     148       --         1.502 au  H             1.00      3 S               6
                        (      40.869 eV)
   149     149       --         0.406 au  H             1.00      1 P:x             6
                        (      11.051 eV)
   150     150       --         0.406 au  H             1.00      1 P:y             6
                        (      11.051 eV)
   151     151       --         0.406 au  H             1.00      1 P:z             6
                        (      11.051 eV)
   152     152       --         2.569 au  H             1.00      1 D:z2            6
                        (      69.917 eV)
   153     153       --         2.569 au  H             1.00      1 D:x2-y2         6
                        (      69.917 eV)
   154     154       --         2.569 au  H             1.00      1 D:xy            6
                        (      69.917 eV)
   155     155       --         2.569 au  H             1.00      1 D:xz            6
                        (      69.917 eV)
   156     156       --         2.569 au  H             1.00      1 D:yz            6
                        (      69.917 eV)
   157     157      1.000      -0.240 au  H             1.00      1 S               7
                        (      -6.532 eV)
   158     158       --         0.088 au  H             1.00      2 S               7
                        (       2.394 eV)
   159     159       --         1.502 au  H             1.00      3 S               7
                        (      40.869 eV)
   160     160       --         0.406 au  H             1.00      1 P:x             7
                        (      11.051 eV)
   161     161       --         0.406 au  H             1.00      1 P:y             7
                        (      11.051 eV)
   162     162       --         0.406 au  H             1.00      1 P:z             7
                        (      11.051 eV)
   163     163       --         2.569 au  H             1.00      1 D:z2            7
                        (      69.917 eV)
   164     164       --         2.569 au  H             1.00      1 D:x2-y2         7
                        (      69.917 eV)
   165     165       --         2.569 au  H             1.00      1 D:xy            7
                        (      69.917 eV)
   166     166       --         2.569 au  H             1.00      1 D:xz            7
                        (      69.917 eV)
   167     167       --         2.569 au  H             1.00      1 D:yz            7
                        (      69.917 eV)
   168     168      1.000      -0.240 au  H             1.00      1 S               8
                        (      -6.532 eV)
   169     169       --         0.088 au  H             1.00      2 S               8
                        (       2.394 eV)
   170     170       --         1.502 au  H             1.00      3 S               8
                        (      40.869 eV)
   171     171       --         0.406 au  H             1.00      1 P:x             8
                        (      11.051 eV)
   172     172       --         0.406 au  H             1.00      1 P:y             8
                        (      11.051 eV)
   173     173       --         0.406 au  H             1.00      1 P:z             8
                        (      11.051 eV)
   174     174       --         2.569 au  H             1.00      1 D:z2            8
                        (      69.917 eV)
   175     175       --         2.569 au  H             1.00      1 D:x2-y2         8
                        (      69.917 eV)
   176     176       --         2.569 au  H             1.00      1 D:xy            8
                        (      69.917 eV)
   177     177       --         2.569 au  H             1.00      1 D:xz            8
                        (      69.917 eV)
   178     178       --         2.569 au  H             1.00      1 D:yz            8
                        (      69.917 eV)
   179     179      1.000      -0.240 au  H             1.00      1 S               9
                        (      -6.532 eV)
   180     180       --         0.088 au  H             1.00      2 S               9
                        (       2.394 eV)
   181     181       --         1.502 au  H             1.00      3 S               9
                        (      40.869 eV)
   182     182       --         0.406 au  H             1.00      1 P:x             9
                        (      11.051 eV)
   183     183       --         0.406 au  H             1.00      1 P:y             9
                        (      11.051 eV)
   184     184       --         0.406 au  H             1.00      1 P:z             9
                        (      11.051 eV)
   185     185       --         2.569 au  H             1.00      1 D:z2            9
                        (      69.917 eV)
   186     186       --         2.569 au  H             1.00      1 D:x2-y2         9
                        (      69.917 eV)
   187     187       --         2.569 au  H             1.00      1 D:xy            9
                        (      69.917 eV)
   188     188       --         2.569 au  H             1.00      1 D:xz            9
                        (      69.917 eV)
   189     189       --         2.569 au  H             1.00      1 D:yz            9
                        (      69.917 eV)
   190     190      1.000      -0.240 au  H             1.00      1 S              10
                        (      -6.532 eV)
   191     191       --         0.088 au  H             1.00      2 S              10
                        (       2.394 eV)
   192     192       --         1.502 au  H             1.00      3 S              10
                        (      40.869 eV)
   193     193       --         0.406 au  H             1.00      1 P:x            10
                        (      11.051 eV)
   194     194       --         0.406 au  H             1.00      1 P:y            10
                        (      11.051 eV)
   195     195       --         0.406 au  H             1.00      1 P:z            10
                        (      11.051 eV)
   196     196       --         2.569 au  H             1.00      1 D:z2           10
                        (      69.917 eV)
   197     197       --         2.569 au  H             1.00      1 D:x2-y2        10
                        (      69.917 eV)
   198     198       --         2.569 au  H             1.00      1 D:xy           10
                        (      69.917 eV)
   199     199       --         2.569 au  H             1.00      1 D:xz           10
                        (      69.917 eV)
   200     200       --         2.569 au  H             1.00      1 D:yz           10
                        (      69.917 eV)
   201     201      2.000     -14.160 au  N             1.00      1 S              11
                        (    -385.319 eV)
   202     202      2.000      -0.678 au  N             1.00      2 S              11
                        (     -18.450 eV)
   203     203       --         0.517 au  N             1.00      3 S              11
                        (      14.073 eV)
   204     204       --         6.872 au  N             1.00      4 S              11
                        (     186.990 eV)
   205     205       --        63.432 au  N             1.00      5 S              11
                        (    1726.082 eV)
   206     206      1.000      -0.260 au  N             1.00      1 P:x            11
                        (      -7.062 eV)
   207     207       --         0.281 au  N             1.00      2 P:x            11
                        (       7.649 eV)
   208     208       --         3.275 au  N             1.00      3 P:x            11
                        (      89.105 eV)
   209     209      1.000      -0.260 au  N             1.00      1 P:y            11
                        (      -7.062 eV)
   210     210       --         0.281 au  N             1.00      2 P:y            11
                        (       7.649 eV)
   211     211       --         3.275 au  N             1.00      3 P:y            11
                        (      89.105 eV)
   212     212      1.000      -0.260 au  N             1.00      1 P:z            11
                        (      -7.062 eV)
   213     213       --         0.281 au  N             1.00      2 P:z            11
                        (       7.649 eV)
   214     214       --         3.275 au  N             1.00      3 P:z            11
                        (      89.105 eV)
   215     215       --         1.250 au  N             1.00      1 D:z2           11
                        (      34.005 eV)
   216     216       --         1.250 au  N             1.00      1 D:x2-y2        11
                        (      34.005 eV)
   217     217       --         1.250 au  N             1.00      1 D:xy           11
                        (      34.005 eV)
   218     218       --         1.250 au  N             1.00      1 D:xz           11
                        (      34.005 eV)
   219     219       --         1.250 au  N             1.00      1 D:yz           11
                        (      34.005 eV)
   220     220       --         4.013 au  N             1.00      1 F:z3           11
                        (     109.190 eV)
   221     221       --         4.013 au  N             1.00      1 F:z            11
                        (     109.190 eV)
   222     222       --         4.013 au  N             1.00      1 F:xyz          11
                        (     109.190 eV)
   223     223       --         4.013 au  N             1.00      1 F:z2x          11
                        (     109.190 eV)
   224     224       --         4.013 au  N             1.00      1 F:z2y          11
                        (     109.190 eV)
   225     225       --         4.013 au  N             1.00      1 F:x            11
                        (     109.190 eV)
   226     226       --         4.013 au  N             1.00      1 F:y            11
                        (     109.190 eV)
   227     227      2.000     -14.160 au  N             1.00      1 S              12
                        (    -385.319 eV)
   228     228      2.000      -0.678 au  N             1.00      2 S              12
                        (     -18.450 eV)
   229     229       --         0.517 au  N             1.00      3 S              12
                        (      14.073 eV)
   230     230       --         6.872 au  N             1.00      4 S              12
                        (     186.990 eV)
   231     231       --        63.432 au  N             1.00      5 S              12
                        (    1726.082 eV)
   232     232      1.000      -0.260 au  N             1.00      1 P:x            12
                        (      -7.062 eV)
   233     233       --         0.281 au  N             1.00      2 P:x            12
                        (       7.649 eV)
   234     234       --         3.275 au  N             1.00      3 P:x            12
                        (      89.105 eV)
   235     235      1.000      -0.260 au  N             1.00      1 P:y            12
                        (      -7.062 eV)
   236     236       --         0.281 au  N             1.00      2 P:y            12
                        (       7.649 eV)
   237     237       --         3.275 au  N             1.00      3 P:y            12
                        (      89.105 eV)
   238     238      1.000      -0.260 au  N             1.00      1 P:z            12
                        (      -7.062 eV)
   239     239       --         0.281 au  N             1.00      2 P:z            12
                        (       7.649 eV)
   240     240       --         3.275 au  N             1.00      3 P:z            12
                        (      89.105 eV)
   241     241       --         1.250 au  N             1.00      1 D:z2           12
                        (      34.005 eV)
   242     242       --         1.250 au  N             1.00      1 D:x2-y2        12
                        (      34.005 eV)
   243     243       --         1.250 au  N             1.00      1 D:xy           12
                        (      34.005 eV)
   244     244       --         1.250 au  N             1.00      1 D:xz           12
                        (      34.005 eV)
   245     245       --         1.250 au  N             1.00      1 D:yz           12
                        (      34.005 eV)
   246     246       --         4.013 au  N             1.00      1 F:z3           12
                        (     109.190 eV)
   247     247       --         4.013 au  N             1.00      1 F:z            12
                        (     109.190 eV)
   248     248       --         4.013 au  N             1.00      1 F:xyz          12
                        (     109.190 eV)
   249     249       --         4.013 au  N             1.00      1 F:z2x          12
                        (     109.190 eV)
   250     250       --         4.013 au  N             1.00      1 F:z2y          12
                        (     109.190 eV)
   251     251       --         4.013 au  N             1.00      1 F:x            12
                        (     109.190 eV)
   252     252       --         4.013 au  N             1.00      1 F:y            12
                        (     109.190 eV)
   253     253      2.000     -18.941 au  O             1.00      1 S              13
                        (    -515.403 eV)
   254     254      2.000      -0.876 au  O             1.00      2 S              13
                        (     -23.838 eV)
   255     255       --         0.791 au  O             1.00      3 S              13
                        (      21.524 eV)
   256     256       --        13.422 au  O             1.00      4 S              13
                        (     365.226 eV)
   257     257       --       121.561 au  O             1.00      5 S              13
                        (    3307.838 eV)
   258     258      1.333      -0.331 au  O             1.00      1 P:x            13
                        (      -9.020 eV)
   259     259       --         0.347 au  O             1.00      2 P:x            13
                        (       9.437 eV)
   260     260       --         3.820 au  O             1.00      3 P:x            13
                        (     103.939 eV)
   261     261      1.333      -0.331 au  O             1.00      1 P:y            13
                        (      -9.020 eV)
   262     262       --         0.347 au  O             1.00      2 P:y            13
                        (       9.437 eV)
   263     263       --         3.820 au  O             1.00      3 P:y            13
                        (     103.939 eV)
   264     264      1.333      -0.331 au  O             1.00      1 P:z            13
                        (      -9.020 eV)
   265     265       --         0.347 au  O             1.00      2 P:z            13
                        (       9.437 eV)
   266     266       --         3.820 au  O             1.00      3 P:z            13
                        (     103.939 eV)
   267     267       --         1.071 au  O             1.00      1 D:z2           13
                        (      29.134 eV)
   268     268       --         1.071 au  O             1.00      1 D:x2-y2        13
                        (      29.134 eV)
   269     269       --         1.071 au  O             1.00      1 D:xy           13
                        (      29.134 eV)
   270     270       --         1.071 au  O             1.00      1 D:xz           13
                        (      29.134 eV)
   271     271       --         1.071 au  O             1.00      1 D:yz           13
                        (      29.134 eV)
   272     272       --         3.359 au  O             1.00      1 F:z3           13
                        (      91.410 eV)
   273     273       --         3.359 au  O             1.00      1 F:z            13
                        (      91.410 eV)
   274     274       --         3.359 au  O             1.00      1 F:xyz          13
                        (      91.410 eV)
   275     275       --         3.359 au  O             1.00      1 F:z2x          13
                        (      91.410 eV)
   276     276       --         3.359 au  O             1.00      1 F:z2y          13
                        (      91.410 eV)
   277     277       --         3.359 au  O             1.00      1 F:x            13
                        (      91.410 eV)
   278     278       --         3.359 au  O             1.00      1 F:y            13
                        (      91.410 eV)
   279     279      2.000     -18.941 au  O             1.00      1 S              14
                        (    -515.403 eV)
   280     280      2.000      -0.876 au  O             1.00      2 S              14
                        (     -23.838 eV)
   281     281       --         0.791 au  O             1.00      3 S              14
                        (      21.524 eV)
   282     282       --        13.422 au  O             1.00      4 S              14
                        (     365.226 eV)
   283     283       --       121.561 au  O             1.00      5 S              14
                        (    3307.838 eV)
   284     284      1.333      -0.331 au  O             1.00      1 P:x            14
                        (      -9.020 eV)
   285     285       --         0.347 au  O             1.00      2 P:x            14
                        (       9.437 eV)
   286     286       --         3.820 au  O             1.00      3 P:x            14
                        (     103.939 eV)
   287     287      1.333      -0.331 au  O             1.00      1 P:y            14
                        (      -9.020 eV)
   288     288       --         0.347 au  O             1.00      2 P:y            14
                        (       9.437 eV)
   289     289       --         3.820 au  O             1.00      3 P:y            14
                        (     103.939 eV)
   290     290      1.333      -0.331 au  O             1.00      1 P:z            14
                        (      -9.020 eV)
   291     291       --         0.347 au  O             1.00      2 P:z            14
                        (       9.437 eV)
   292     292       --         3.820 au  O             1.00      3 P:z            14
                        (     103.939 eV)
   293     293       --         1.071 au  O             1.00      1 D:z2           14
                        (      29.134 eV)
   294     294       --         1.071 au  O             1.00      1 D:x2-y2        14
                        (      29.134 eV)
   295     295       --         1.071 au  O             1.00      1 D:xy           14
                        (      29.134 eV)
   296     296       --         1.071 au  O             1.00      1 D:xz           14
                        (      29.134 eV)
   297     297       --         1.071 au  O             1.00      1 D:yz           14
                        (      29.134 eV)
   298     298       --         3.359 au  O             1.00      1 F:z3           14
                        (      91.410 eV)
   299     299       --         3.359 au  O             1.00      1 F:z            14
                        (      91.410 eV)
   300     300       --         3.359 au  O             1.00      1 F:xyz          14
                        (      91.410 eV)
   301     301       --         3.359 au  O             1.00      1 F:z2x          14
                        (      91.410 eV)
   302     302       --         3.359 au  O             1.00      1 F:z2y          14
                        (      91.410 eV)
   303     303       --         3.359 au  O             1.00      1 F:x            14
                        (      91.410 eV)
   304     304       --         3.359 au  O             1.00      1 F:y            14
                        (      91.410 eV)



 ================================
 (Slater-type)  F U N C T I O N S  ***  (Basis and Fit)  ***
 ================================
  

 Atom Type    1  (C)
 ==============

 Valence Basis Sets:  10
 -----------------------
   1 S    7.680000
   1 S    5.000000
   2 S    1.280000
   2 S    2.100000
   2 S    4.600000
   2 P    0.820000
   2 P    1.480000
   2 P    2.940000
   3 D    2.200000
   4 F    3.300000

 Atom Type    2  (Br)
 ==============

 Valence Basis Sets:  20
 -----------------------
   1 S   41.300000
   1 S   32.800000
   2 S   13.900000
   2 P   19.450000
   2 P   13.100000
   3 S    7.200000
   3 S    4.950000
   3 P    7.900000
   3 P    5.050000
   3 D   10.900000
   3 D    6.050000
   3 D    3.500000
   4 S    4.500000
   4 S    2.800000
   4 S    1.800000
   4 P    3.250000
   4 P    1.950000
   4 P    1.200000
   4 D    1.800000
   4 F    1.800000

 Atom Type    3  (H)
 ==============

 Valence Basis Sets:   5
 -----------------------
   1 S    0.690000
   1 S    0.920000
   1 S    1.580000
   2 P    1.250000
   3 D    2.500000

 Atom Type    4  (N)
 ==============

 Valence Basis Sets:  10
 -----------------------
   1 S    8.740000
   1 S    5.900000
   2 S    5.150000
   2 S    2.500000
   2 S    1.500000
   2 P    3.680000
   2 P    1.880000
   2 P    1.000000
   3 D    2.200000
   4 F    3.300000

 Atom Type    5  (O)
 ==============

 Valence Basis Sets:  10
 -----------------------
   1 S    9.800000
   1 S    6.800000
   2 S    7.580000
   2 S    2.880000
   2 S    1.720000
   2 P    4.080000
   2 P    2.080000
   2 P    1.120000
   3 D    2.000000
   4 F    3.000000


 BAS: List of all Elementary Cartesian Basis Functions
 =====================================================

 The numbering in the list below (to the right of the function characteristics) is referred
 to in print-outs of MO eigenvectors and Mulliken populations in the BAS representation
 (as contrasted to the SFO representation).

 Notes:
 1. The functions are characterized by a polynomial prefactor (powers of x,y,z and r) and
    an exponential decay factor alpha.
 2. Since the basis sets are specific for an atom TYPE, the individual functions occur on
    all atoms of that type.
 3. The word 'Core' in the left margin signals that it is a Core Function (CF) : not a
    degree of freedom in the valence set, but only used to ensure orthogonalization of
    the other valence basis functions on the frozen Core Orbitals.


 (power of) X  Y  Z  R     Alpha  on Atom
            ==========     =====     ==========

 C                                    1    2    3
                                  ---------------------------------------------------------------------------
            0  0  0  0     7.680      1   31   61
            0  0  0  0     5.000      2   32   62
            0  0  0  1     1.280      3   33   63
            0  0  0  1     2.100      4   34   64
            0  0  0  1     4.600      5   35   65
            1  0  0  0     0.820      6   36   66
            0  1  0  0     0.820      7   37   67
            0  0  1  0     0.820      8   38   68
            1  0  0  0     1.480      9   39   69
            0  1  0  0     1.480     10   40   70
            0  0  1  0     1.480     11   41   71
            1  0  0  0     2.940     12   42   72
            0  1  0  0     2.940     13   43   73
            0  0  1  0     2.940     14   44   74
            2  0  0  0     2.200     15   45   75
            1  1  0  0     2.200     16   46   76
            1  0  1  0     2.200     17   47   77
            0  2  0  0     2.200     18   48   78
            0  1  1  0     2.200     19   49   79
            0  0  2  0     2.200     20   50   80
            3  0  0  0     3.300     21   51   81
            2  1  0  0     3.300     22   52   82
            2  0  1  0     3.300     23   53   83
            1  2  0  0     3.300     24   54   84
            1  1  1  0     3.300     25   55   85
            1  0  2  0     3.300     26   56   86
            0  3  0  0     3.300     27   57   87
            0  2  1  0     3.300     28   58   88
            0  1  2  0     3.300     29   59   89
            0  0  3  0     3.300     30   60   90

 Br                                   4
                                  ---------------------------------------------------------------------------
            0  0  0  0    41.300     91
            0  0  0  0    32.800     92
            0  0  0  1    13.900     93
            1  0  0  0    19.450     94
            0  1  0  0    19.450     95
            0  0  1  0    19.450     96
            1  0  0  0    13.100     97
            0  1  0  0    13.100     98
            0  0  1  0    13.100     99
            0  0  0  2     7.200    100
            0  0  0  2     4.950    101
            1  0  0  1     7.900    102
            0  1  0  1     7.900    103
            0  0  1  1     7.900    104
            1  0  0  1     5.050    105
            0  1  0  1     5.050    106
            0  0  1  1     5.050    107
            2  0  0  0    10.900    108
            1  1  0  0    10.900    109
            1  0  1  0    10.900    110
            0  2  0  0    10.900    111
            0  1  1  0    10.900    112
            0  0  2  0    10.900    113
            2  0  0  0     6.050    114
            1  1  0  0     6.050    115
            1  0  1  0     6.050    116
            0  2  0  0     6.050    117
            0  1  1  0     6.050    118
            0  0  2  0     6.050    119
            2  0  0  0     3.500    120
            1  1  0  0     3.500    121
            1  0  1  0     3.500    122
            0  2  0  0     3.500    123
            0  1  1  0     3.500    124
            0  0  2  0     3.500    125
            0  0  0  3     4.500    126
            0  0  0  3     2.800    127
            0  0  0  3     1.800    128
            1  0  0  2     3.250    129
            0  1  0  2     3.250    130
            0  0  1  2     3.250    131
            1  0  0  2     1.950    132
            0  1  0  2     1.950    133
            0  0  1  2     1.950    134
            1  0  0  2     1.200    135
            0  1  0  2     1.200    136
            0  0  1  2     1.200    137
            2  0  0  1     1.800    138
            1  1  0  1     1.800    139
            1  0  1  1     1.800    140
            0  2  0  1     1.800    141
            0  1  1  1     1.800    142
            0  0  2  1     1.800    143
            3  0  0  0     1.800    144
            2  1  0  0     1.800    145
            2  0  1  0     1.800    146
            1  2  0  0     1.800    147
            1  1  1  0     1.800    148
            1  0  2  0     1.800    149
            0  3  0  0     1.800    150
            0  2  1  0     1.800    151
            0  1  2  0     1.800    152
            0  0  3  0     1.800    153

 H                                    5    6    7    8    9   10
                                  ---------------------------------------------------------------------------
            0  0  0  0     0.690    154  166  178  190  202  214
            0  0  0  0     0.920    155  167  179  191  203  215
            0  0  0  0     1.580    156  168  180  192  204  216
            1  0  0  0     1.250    157  169  181  193  205  217
            0  1  0  0     1.250    158  170  182  194  206  218
            0  0  1  0     1.250    159  171  183  195  207  219
            2  0  0  0     2.500    160  172  184  196  208  220
            1  1  0  0     2.500    161  173  185  197  209  221
            1  0  1  0     2.500    162  174  186  198  210  222
            0  2  0  0     2.500    163  175  187  199  211  223
            0  1  1  0     2.500    164  176  188  200  212  224
            0  0  2  0     2.500    165  177  189  201  213  225

 N                                   11   12
                                  ---------------------------------------------------------------------------
            0  0  0  0     8.740    226  256
            0  0  0  0     5.900    227  257
            0  0  0  1     5.150    228  258
            0  0  0  1     2.500    229  259
            0  0  0  1     1.500    230  260
            1  0  0  0     3.680    231  261
            0  1  0  0     3.680    232  262
            0  0  1  0     3.680    233  263
            1  0  0  0     1.880    234  264
            0  1  0  0     1.880    235  265
            0  0  1  0     1.880    236  266
            1  0  0  0     1.000    237  267
            0  1  0  0     1.000    238  268
            0  0  1  0     1.000    239  269
            2  0  0  0     2.200    240  270
            1  1  0  0     2.200    241  271
            1  0  1  0     2.200    242  272
            0  2  0  0     2.200    243  273
            0  1  1  0     2.200    244  274
            0  0  2  0     2.200    245  275
            3  0  0  0     3.300    246  276
            2  1  0  0     3.300    247  277
            2  0  1  0     3.300    248  278
            1  2  0  0     3.300    249  279
            1  1  1  0     3.300    250  280
            1  0  2  0     3.300    251  281
            0  3  0  0     3.300    252  282
            0  2  1  0     3.300    253  283
            0  1  2  0     3.300    254  284
            0  0  3  0     3.300    255  285

 O                                   13   14
                                  ---------------------------------------------------------------------------
            0  0  0  0     9.800    286  316
            0  0  0  0     6.800    287  317
            0  0  0  1     7.580    288  318
            0  0  0  1     2.880    289  319
            0  0  0  1     1.720    290  320
            1  0  0  0     4.080    291  321
            0  1  0  0     4.080    292  322
            0  0  1  0     4.080    293  323
            1  0  0  0     2.080    294  324
            0  1  0  0     2.080    295  325
            0  0  1  0     2.080    296  326
            1  0  0  0     1.120    297  327
            0  1  0  0     1.120    298  328
            0  0  1  0     1.120    299  329
            2  0  0  0     2.000    300  330
            1  1  0  0     2.000    301  331
            1  0  1  0     2.000    302  332
            0  2  0  0     2.000    303  333
            0  1  1  0     2.000    304  334
            0  0  2  0     2.000    305  335
            3  0  0  0     3.000    306  336
            2  1  0  0     3.000    307  337
            2  0  1  0     3.000    308  338
            1  2  0  0     3.000    309  339
            1  1  1  0     3.000    310  340
            1  0  2  0     3.000    311  341
            0  3  0  0     3.000    312  342
            0  2  1  0     3.000    313  343
            0  1  2  0     3.000    314  344
            0  0  3  0     3.000    315  345

 Total number of charge fitting functions (nprimf)      1058
 Total number of Cartesian basis functions (naos)        345
 Total number of Cartesian core functions  (ncos)          0

 ***************************************************************************************************



                                              ***********************
                                              *  T E C H N I C A L  *
                                              ***********************
  



 =============================================================
 P A R A L L E L I Z A T I O N  and  V E C T O R I Z A T I O N
 =============================================================
  
 Nr of parallel processes:                                1
 Maximum vector length in NumInt loops:                 128



 =====================
 S C F   U P D A T E S
 =====================
  
 Max. nr. of cycles:                               200
 Convergence criterion:                              0.0000010000
   secondary criterion:                              0.0010000000

 Mix parameter (when DIIS does not apply):           0.2000000000
 Mixed ADIIS+SDIIS will be used                  
    Max number of expansion vectors:                10
    Pure ADIIS when Max([F,P]) is above              0.1000000000
    Pure SDIIS when Max([F,P]) is below              0.0010000000
 Automatic ElectronSmearing (in case of problematic SCF convergence) disabled



 =================
 P R E C I S I O N  ***  (General: NumInt, NeglectFunctionTails, ...)  ***
 =================
  

 NumInt:           Target precision:                 4.0000000000
 -------           Initial precision:                4.0000000000
                   Min. precision (optimization):    4.0000000000

 Neglect Functions:          Basis functions:        0.1000000000E-05
 ------------------          Fit functions:          0.1000000000E-05



 ===========================
 L I N E A R   S C A L I N G
 ===========================
  

 Cut-off radii density fit:                        0.1000000000E-07
 Overlap cut-off criterion AO matrix elements:     0.1000000000E-05
 Cut-offs for Coulomb potential and fitted density:0.1000000000E-07
 Cut-off criterion for Coulomb multipole terms:    0.1000000000E-07
 Progressive Convergence parameter:                 0.000000000    
 ***************************************************************************************************



                                            ***************************
                                            *  C O M P U T A T I O N  *
                                            ***************************
  

 Number of elements of the density matrix on this node (used, total):     59685     59685



 ===========================================
 Numerical Integration : Fuzzy Cells (Becke)
 ===========================================
  
 Becke grid quality: NORMAL         
  
 Lebedev angular grid order:             min:  11 max:  23
 Nr. of radial points:                   min:  46 max:  77

 Total nr. of points:      94854
 Nr. of blocks:              742
 Block length:               128
 Nr. of dummy points:        122


 Test of Precision of the Numerical Integration Grid
 ===================================================

 Integral of the Total Core Density:                   0.00000000000000



 ========================
 Density Fitting (zlmFit)
 ========================
  
 ZlmFit Fit Quality: NORMAL         
  
 Max L-expansion:                        min:   6 max:   7
 Nr. of radial interpolation points:     min:  39 max:  72



 =====
 S C F  ***  ScaSCF  ***
 =====
  
 Initial density matrix is calculated as sum of fragments

 CYCLE    1
 SCF Error: norm([F,P])=      6.613291337012, max([F,P])=      1.259551634842
 orbitals (Q,E):
 ---------------
 A :35...55          ( 2.00    -0.5365)  ( 2.00    -0.5275)  ( 2.00    -0.4975)  ( 2.00    -0.4257)
                     ( 2.00    -0.4140)  ( 2.00    -0.3922)  ( 2.00    -0.3777)  ( 2.00    -0.3724)
                     ( 2.00    -0.3038)  ( 2.00    -0.2947)  ( 1.00    -0.2874)  ( 0.00    -0.1905)
                     ( 0.00    -0.1334)  ( 0.00    -0.0581)  ( 0.00    -0.0469)  ( 0.00    -0.0304)
                     ( 0.00    -0.0130)  ( 0.00    -0.0106)  ( 0.00     0.0094)  ( 0.00     0.0169)
                     ( 0.00     0.0266)

 CYCLE    2
   MIX coefficients:  0.8000  0.2000
 SCF Error: norm([F,P])=      1.429136478631, max([F,P])=      0.231331330530
 orbitals (Q,E):
 ---------------
 A :35...46          ( 2.00    -0.4745)  ( 2.00    -0.4581)  ( 2.00    -0.4301)  ( 2.00    -0.4018)
                     ( 2.00    -0.3515)  ( 2.00    -0.3427)  ( 2.00    -0.3307)  ( 2.00    -0.3225)
                     ( 2.00    -0.3168)  ( 2.00    -0.3058)  ( 1.00    -0.2501)  ( 0.00    -0.1689)

 CYCLE    3
  SDIIS (wt  0.000): -0.2572  1.2572
 A-DIIS (wt  1.000):  0.0000  1.0000
  DIIS coefficients:  0.0000  1.0000
 SCF Error: norm([F,P])=      0.567460639478, max([F,P])=      0.113717099792
 orbitals (Q,E):
 ---------------
 A :35...46          ( 2.00    -0.3683)  ( 2.00    -0.3417)  ( 2.00    -0.3156)  ( 2.00    -0.3086)
                     ( 2.00    -0.2448)  ( 2.00    -0.2366)  ( 2.00    -0.2204)  ( 2.00    -0.2153)
                     ( 2.00    -0.2075)  ( 2.00    -0.1996)  ( 1.00    -0.1683)  ( 0.00    -0.0988)

 CYCLE    4
  SDIIS (wt  0.000): -0.0842  0.8306  0.2536
 A-DIIS (wt  1.000):  0.0000  0.8321  0.1679
  DIIS coefficients:  0.0000  0.8321  0.1679
 SCF Error: norm([F,P])=      1.395033051435, max([F,P])=      0.342220918620
 orbitals (Q,E):
 ---------------
 A :35...46          ( 2.00    -0.3614)  ( 2.00    -0.3431)  ( 2.00    -0.3237)  ( 2.00    -0.3149)
                     ( 2.00    -0.2755)  ( 2.00    -0.2623)  ( 2.00    -0.2529)  ( 2.00    -0.2378)
                     ( 2.00    -0.2289)  ( 2.00    -0.2197)  ( 1.00    -0.1840)  ( 0.00    -0.1129)

 CYCLE    5
  SDIIS (wt  0.000):  0.0080  0.4744  0.0959  0.4217
 A-DIIS (wt  1.000):  0.0000  0.3571  0.0000  0.6429
  DIIS coefficients:  0.0000  0.3571  0.0000  0.6429
 SCF Error: norm([F,P])=      0.430248778528, max([F,P])=      0.106705809701
 orbitals (Q,E):
 ---------------
 A :35...46          ( 2.00    -0.4316)  ( 2.00    -0.4062)  ( 2.00    -0.3808)  ( 2.00    -0.3545)
                     ( 2.00    -0.2923)  ( 2.00    -0.2813)  ( 2.00    -0.2738)  ( 2.00    -0.2644)
                     ( 2.00    -0.2543)  ( 2.00    -0.2398)  ( 1.00    -0.2264)  ( 0.00    -0.1231)

 CYCLE    6
  SDIIS (wt  0.000): -0.0020  0.3002 -0.0618  0.5528  0.2108
 A-DIIS (wt  1.000):  0.0000  0.3229  0.0000  0.5799  0.0971
  DIIS coefficients:  0.0000  0.3229  0.0000  0.5799  0.0971
 SCF Error: norm([F,P])=      0.759722207480, max([F,P])=      0.157731445893
 orbitals (Q,E):
 ---------------
 A :35...46          ( 2.00    -0.4169)  ( 2.00    -0.3961)  ( 2.00    -0.3685)  ( 2.00    -0.3539)
                     ( 2.00    -0.2978)  ( 2.00    -0.2859)  ( 2.00    -0.2767)  ( 2.00    -0.2634)
                     ( 2.00    -0.2614)  ( 2.00    -0.2462)  ( 1.00    -0.2199)  ( 0.00    -0.1270)

 CYCLE    7
  SDIIS (wt  0.672): -0.0084  0.1430  0.0348  0.2525 -0.0105  0.5887
 A-DIIS (wt  0.328):  0.0000  0.0000  0.0000  0.0574  0.0000  0.9426
  DIIS coefficients: -0.0056  0.0961  0.0234  0.1886 -0.0071  0.7046
 SCF Error: norm([F,P])=      0.145564910323, max([F,P])=      0.033426261253
 orbitals (Q,E):
 ---------------
 A :35...46          ( 2.00    -0.4029)  ( 2.00    -0.3833)  ( 2.00    -0.3596)  ( 2.00    -0.3508)
                     ( 2.00    -0.2937)  ( 2.00    -0.2836)  ( 2.00    -0.2728)  ( 2.00    -0.2607)
                     ( 2.00    -0.2589)  ( 2.00    -0.2428)  ( 1.00    -0.2149)  ( 0.00    -0.1293)

 CYCLE    8
  SDIIS (wt  0.771): -0.0007  0.0600  0.0095  0.1538  0.0070  0.4797  0.2907
 A-DIIS (wt  0.229):  0.0000  0.0000  0.0000  0.0000  0.0000  0.3634  0.6366
  DIIS coefficients: -0.0005  0.0463  0.0073  0.1186  0.0054  0.4531  0.3698
 SCF Error: norm([F,P])=      0.101648342139, max([F,P])=      0.023644206557
 orbitals (Q,E):
 ---------------
 A :35...46          ( 2.00    -0.4053)  ( 2.00    -0.3849)  ( 2.00    -0.3605)  ( 2.00    -0.3495)
                     ( 2.00    -0.2947)  ( 2.00    -0.2823)  ( 2.00    -0.2737)  ( 2.00    -0.2599)
                     ( 2.00    -0.2576)  ( 2.00    -0.2421)  ( 1.00    -0.2143)  ( 0.00    -0.1266)

 CYCLE    9
  SDIIS (wt  0.873):  0.0019  0.0169 -0.0052  0.0754  0.0179  0.2754  0.3389  0.2789
 A-DIIS (wt  0.127):  0.0000  0.0000  0.0000  0.0000  0.0000  0.0000  0.2312  0.7688
  DIIS coefficients:  0.0016  0.0147 -0.0045  0.0659  0.0156  0.2405  0.3252  0.3410
 SCF Error: norm([F,P])=      0.051139936870, max([F,P])=      0.013545725818
 orbitals (Q,E):
 ---------------
 A :35...46          ( 2.00    -0.4068)  ( 2.00    -0.3863)  ( 2.00    -0.3616)  ( 2.00    -0.3502)
                     ( 2.00    -0.2943)  ( 2.00    -0.2830)  ( 2.00    -0.2728)  ( 2.00    -0.2597)
                     ( 2.00    -0.2576)  ( 2.00    -0.2425)  ( 1.00    -0.2150)  ( 0.00    -0.1267)

 CYCLE   10
  SDIIS (wt  0.932):  0.0007  0.0023  0.0027  0.0166  0.0003  0.1463  0.2137  0.3091  0.3083
 A-DIIS (wt  0.068):  0.0000  0.0000  0.0000  0.0000  0.0000  0.0000  0.0000  0.2959  0.7041
  DIIS coefficients:  0.0007  0.0021  0.0025  0.0155  0.0003  0.1363  0.1990  0.3082  0.3353
 SCF Error: norm([F,P])=      0.027596611048, max([F,P])=      0.007772975983
 orbitals (Q,E):
 ---------------
 A :35...46          ( 2.00    -0.4065)  ( 2.00    -0.3862)  ( 2.00    -0.3614)  ( 2.00    -0.3504)
                     ( 2.00    -0.2942)  ( 2.00    -0.2828)  ( 2.00    -0.2732)  ( 2.00    -0.2600)
                     ( 2.00    -0.2580)  ( 2.00    -0.2424)  ( 1.00    -0.2152)  ( 0.00    -0.1269)

 CYCLE   11
  SDIIS (wt  0.998): -0.0004 -0.0005  0.0003  0.0020  0.0013  0.0432  0.0771  0.1479  0.2242  0.5049
 A-DIIS (wt  0.002):  0.0000  0.0000  0.0000  0.0000  0.0000  0.0000  0.0000  0.0000  0.0390  0.9610
  DIIS coefficients: -0.0004 -0.0005  0.0003  0.0020  0.0013  0.0431  0.0770  0.1477  0.2239  0.5057
 SCF Error: norm([F,P])=      0.004771865911, max([F,P])=      0.001161192761
 orbitals (Q,E):
 ---------------
 A :35...46          ( 2.00    -0.4063)  ( 2.00    -0.3860)  ( 2.00    -0.3613)  ( 2.00    -0.3503)
                     ( 2.00    -0.2944)  ( 2.00    -0.2829)  ( 2.00    -0.2733)  ( 2.00    -0.2600)
                     ( 2.00    -0.2579)  ( 2.00    -0.2425)  ( 1.00    -0.2152)  ( 0.00    -0.1270)

 CYCLE   12
  SDIIS (wt  1.000): -0.0012 -0.0001 -0.0002  0.0010  0.0150  0.0324  0.0630  0.1009  0.2605  0.5286
  DIIS coefficients: -0.0012 -0.0001 -0.0002  0.0010  0.0150  0.0324  0.0630  0.1009  0.2605  0.5286
 SCF Error: norm([F,P])=      0.001057749345, max([F,P])=      0.000165266574
 orbitals (Q,E):
 ---------------
 A :35...46          ( 2.00    -0.4063)  ( 2.00    -0.3860)  ( 2.00    -0.3613)  ( 2.00    -0.3503)
                     ( 2.00    -0.2943)  ( 2.00    -0.2828)  ( 2.00    -0.2732)  ( 2.00    -0.2601)
                     ( 2.00    -0.2580)  ( 2.00    -0.2425)  ( 1.00    -0.2151)  ( 0.00    -0.1269)

 CYCLE   13
  SDIIS (wt  1.000):  0.0002  0.0000  0.0006  0.0027  0.0070  0.0198  0.0447  0.1598  0.4076  0.3577
  DIIS coefficients:  0.0002  0.0000  0.0006  0.0027  0.0070  0.0198  0.0447  0.1598  0.4076  0.3577
 SCF Error: norm([F,P])=      0.001173521136, max([F,P])=      0.000257694207
 orbitals (Q,E):
 ---------------
 A :35...46          ( 2.00    -0.4064)  ( 2.00    -0.3860)  ( 2.00    -0.3613)  ( 2.00    -0.3503)
                     ( 2.00    -0.2943)  ( 2.00    -0.2828)  ( 2.00    -0.2732)  ( 2.00    -0.2600)
                     ( 2.00    -0.2579)  ( 2.00    -0.2425)  ( 1.00    -0.2152)  ( 0.00    -0.1270)

 CYCLE   14
  SDIIS (wt  1.000): -0.0004  0.0003 -0.0051 -0.0076 -0.0113 -0.0144 -0.0173  0.0756  0.1208  0.8594
  DIIS coefficients: -0.0004  0.0003 -0.0051 -0.0076 -0.0113 -0.0144 -0.0173  0.0756  0.1208  0.8594
 SCF Error: norm([F,P])=      0.000332055749, max([F,P])=      0.000078130628
 orbitals (Q,E):
 ---------------
 A :35...46          ( 2.00    -0.4064)  ( 2.00    -0.3860)  ( 2.00    -0.3613)  ( 2.00    -0.3503)
                     ( 2.00    -0.2943)  ( 2.00    -0.2828)  ( 2.00    -0.2732)  ( 2.00    -0.2600)
                     ( 2.00    -0.2579)  ( 2.00    -0.2425)  ( 1.00    -0.2152)  ( 0.00    -0.1270)

 CYCLE   15
[...]
                                    4.08%     2 P:z             4.589  0.00     1 C
                                    3.54%     2 P:x             4.589  0.00     1 C
                                    3.48%     1 P:z            -5.239  0.67     3 C
                                    3.46%     1 S              -6.532  1.00     5 H
                                   -3.12%     5 S               6.099  0.00     4 Br
                                    3.02%     1 P:x            -7.062  1.00    11 N
                                   -2.79%     2 P:y             4.589  0.00     3 C
                                   -2.26%     3 S              10.158  0.00     2 C
                                   -2.05%     2 P:z             7.649  0.00    11 N
                                    1.92%     2 S               2.394  0.00     9 H
                                   -1.73%     2 P:y             7.649  0.00    11 N
                                    1.49%     2 S               2.394  0.00     5 H
                                    1.46%     1 P:z            -5.239  0.67     1 C
                                    1.45%     1 P:x            -5.239  0.67     1 C
                                   -1.13%     2 P:y             4.589  0.00     2 C
                                    1.13%     2 S               2.394  0.00    10 H
       1.369  0.00    52 A         17.64%     1 S              -6.532  1.00     6 H
                                   17.01%     1 S              -6.532  1.00     5 H
                                   15.32%     2 S               2.394  0.00     5 H
                                   10.63%     1 S              -6.532  1.00     9 H
                                   -9.34%     2 P:z             4.589  0.00     3 C
                                    9.21%     1 P:y            -5.239  0.67     1 C
                                    8.03%     2 P:y             4.589  0.00     3 C
                                    7.61%     1 S              -6.532  1.00     8 H
                                    7.37%     2 S               2.394  0.00     9 H
                                    7.04%     2 S             -18.450  2.00    12 N
                                    6.89%     1 P:z            -5.239  0.67     2 C
                                   -5.81%     2 P:y             4.589  0.00     2 C
                                   -5.13%     2 P:x             4.589  0.00     3 C
                                   -4.40%     2 P:y             4.589  0.00     1 C
                                    4.14%     1 P:y            -5.239  0.67     3 C
                                   -3.62%     1 P:z            -5.239  0.67     1 C
                                    3.33%     2 S               2.394  0.00     8 H
                                   -3.21%     2 P:y             7.649  0.00    11 N
                                    3.05%     1 P:x            -5.239  0.67     3 C
                                    2.67%     2 S             -13.620  2.00     1 C
                                   -2.46%     2 P:x             4.589  0.00     2 C
                                    2.00%     2 P:z             4.589  0.00     1 C
                                   -1.99%     2 P:z             4.589  0.00     2 C
                                    1.79%     3 S              40.869  0.00     5 H
                                    1.70%     4 P:x             3.720  0.00     4 Br
                                   -1.66%     3 S              10.158  0.00     1 C
                                   -1.53%     2 S               2.394  0.00     6 H
                                    1.50%     1 P:y            -9.020  1.33    14 O
                                    1.43%     2 S               2.394  0.00    10 H
                                    1.38%     1 P:y            11.051  0.00     6 H
                                    1.36%     2 P:y             7.649  0.00    12 N
                                    1.31%     1 P:x            -5.239  0.67     1 C
                                   -1.24%     5 S               6.099  0.00     4 Br
                                    1.20%     3 S              40.869  0.00     9 H
                                   -1.18%     3 S              14.073  0.00    12 N
                                   -1.17%     3 S              10.158  0.00     2 C
                                    1.15%     1 P:x            -9.020  1.33    13 O
       1.703  0.00    53 A         36.01%     1 S              -6.532  1.00    10 H
                                   18.47%     2 S               2.394  0.00    10 H
                                  -15.23%     2 P:x             4.589  0.00     3 C
                                   11.18%     1 S              -6.532  1.00     9 H
                                   10.23%     1 S              -6.532  1.00     8 H
                                   -9.25%     2 P:y             4.589  0.00     3 C
                                    9.14%     2 S               2.394  0.00     8 H
                                    7.56%     1 S              -6.532  1.00     7 H
                                    7.10%     1 P:y            -5.239  0.67     3 C
                                    6.34%     1 S              -6.532  1.00     5 H
                                   -5.94%     2 P:z             4.589  0.00     3 C
                                    3.67%     2 S               2.394  0.00     5 H
                                    2.85%     2 S               2.394  0.00     9 H
                                   -2.63%     3 S              10.158  0.00     2 C
                                    2.61%     1 P:x            -5.239  0.67     2 C
                                    2.52%     3 S              40.869  0.00    10 H
                                   -1.88%     2 P:x             7.649  0.00    11 N
                                    1.84%     1 P:x            -5.239  0.67     3 C
                                    1.33%     1 P:z            -5.239  0.67     3 C
                                    1.28%     2 P:x             4.589  0.00     2 C
                                    1.25%     3 S              40.869  0.00     8 H
                                    1.14%     1 P:y            -5.239  0.67     2 C
                                    1.12%     1 P:y            -5.239  0.67     1 C
       1.876  0.00    54 A         17.40%     1 P:y            -5.239  0.67     1 C
                                  -13.06%     2 P:z             4.589  0.00     3 C
                                   13.02%     1 S              -6.532  1.00     9 H
                                   10.75%     2 S             -18.450  2.00    12 N
                                    7.96%     1 S              -6.532  1.00     7 H
                                    7.51%     2 S               2.394  0.00     8 H
                                    6.65%     2 S               2.394  0.00     6 H
                                    6.50%     1 P:z            -5.239  0.67     3 C
                                   -5.80%     2 P:x             7.649  0.00    11 N
                                    5.53%     2 P:x             4.589  0.00     3 C
                                    4.48%     1 P:x            -5.239  0.67     1 C
                                    3.99%     2 S               2.394  0.00     9 H
                                    3.99%     1 S              -6.532  1.00     6 H
                                    3.98%     1 P:x            -7.062  1.00    11 N
                                    3.73%     1 S              -6.532  1.00     8 H
                                    3.13%     2 P:z             4.589  0.00     1 C
                                   -2.91%     3 S              14.073  0.00    12 N
                                    2.86%     1 P:x            -5.239  0.67     2 C
                                    2.59%     1 S              -6.532  1.00     5 H
                                    2.06%     1 S              -6.532  1.00    10 H
                                    1.92%     1 P:y            -9.020  1.33    14 O
                                    1.87%     2 S             -13.620  2.00     1 C
                                    1.85%     1 P:y            -5.239  0.67     2 C
                                    1.78%     1 P:x            -9.020  1.33    13 O
                                    1.73%     4 P:z             3.720  0.00     4 Br
                                   -1.27%     2 P:y             4.589  0.00     1 C
                                    1.26%     1 P:y            -7.062  1.00    12 N
                                    1.20%     3 S              40.869  0.00     6 H
                                    1.20%     2 P:y             7.649  0.00    12 N
                                    1.14%     3 S              40.869  0.00     9 H
                                   -1.09%     2 S               2.394  0.00     5 H
                                    1.07%     1 P:x            -5.239  0.67     3 C



 =======================================================================
 Electrostatic potential at the Nuclei due to electrons and other nuclei
 =======================================================================
  
         Atom                  Potential
         ----                  ---------
     1)   C                  14.64363108
     2)   C                  14.72395010
     3)   Br                180.52571628
     4)   H                   1.05866276
     5)   N                  18.39224101
     6)   H                   1.01430757
     7)   H                   1.01623260
     8)   C                  14.76099822
     9)   H                   1.07221128
    10)   H                   1.09267715
    11)   H                   1.08839934
    12)   N                  18.18876105
    13)   O                  22.35967573
    14)   O                  22.36098254
 Mulliken charges used for AMS results%charges...


    =====================
     CALCULATION RESULTS
    =====================

Energy (hartree)            -2.66301636


--------------
Atomic charges
--------------
  Index   Atom    Charge
      1      C    0.2931
      2      C    0.1346
      3     Br   -0.2188
      4      H   -0.1384
      5      N    0.0154
      6      H   -0.0379
      7      H   -0.0317
      8      C    0.6928
      9      H   -0.1604
     10      H   -0.2242
     11      H   -0.1562
     12      N    0.5772
     13      O   -0.3649
     14      O   -0.3806


Dipole moment vector    (Debye):     0.42954381    2.44951913    3.84917455
              magnitude (Debye):     4.58266260


-----------------------
Molecular orbitals info
-----------------------
n orbitals:              304
n spin:                    1

Note: only printing virtual orbitals with
      energy smaller than HOMO + 100. eV

Note: fractional orbital occupations. HOMO and LUMO labels are not well defined!

HOMO (eV):              -6.5974
LUMO (eV):              -5.8560
HOMO-LUMO gap (eV):      0.7414

   Index   Energy (eV)    Occupation
     197       92.9335         0.000       
     196       92.5318         0.000       
     195       91.8058         0.000       
     194       91.5970         0.000       
     193       91.0436         0.000       
     192       89.8478         0.000       
     191       88.6307         0.000       
     190       88.3968         0.000       
     189       86.8120         0.000       
     188       85.9788         0.000       
     187       84.1053         0.000       
     186       82.9007         0.000       
     185       82.5976         0.000       
     184       81.8547         0.000       
     183       81.3913         0.000       
     182       80.5253         0.000       
     181       80.0255         0.000       
     180       79.9135         0.000       
     179       79.2746         0.000       
     178       77.9267         0.000       
     177       77.2572         0.000       
     176       77.1275         0.000       
     175       76.5006         0.000       
     174       75.0925         0.000       
     173       74.7209         0.000       
     172       74.4911         0.000       
     171       73.7666         0.000       
     170       72.4413         0.000       
     169       71.9667         0.000       
     168       70.9235         0.000       
     167       68.5566         0.000       
     166       67.9375         0.000       
     165       66.6211         0.000       
     164       65.4498         0.000       
     163       64.7249         0.000       
     162       63.6280         0.000       
     161       63.1846         0.000       
     160       61.5244         0.000       
     159       60.2174         0.000       
     158       59.3645         0.000       
     157       58.2045         0.000       
     156       57.5697         0.000       
     155       57.3352         0.000       
     154       56.7369         0.000       
     153       56.0951         0.000       
     152       54.6986         0.000       
     151       53.8008         0.000       
     150       53.2888         0.000       
     149       52.3023         0.000       
     148       52.2657         0.000       
     147       51.3316         0.000       
     146       50.8170         0.000       
     145       49.2957         0.000       
     144       48.6941         0.000       
     143       48.0417         0.000       
     142       46.8952         0.000       
     141       46.5117         0.000       
     140       45.0809         0.000       
     139       43.8046         0.000       
     138       43.4150         0.000       
     137       42.8004         0.000       
     136       42.0149         0.000       
     135       41.4206         0.000       
     134       40.5553         0.000       
     133       40.0611         0.000       
     132       38.8150         0.000       
     131       38.5816         0.000       
     130       37.5763         0.000       
     129       37.3430         0.000       
     128       36.9252         0.000       
     127       36.2596         0.000       
     126       35.2777         0.000       
     125       35.0321         0.000       
     124       33.8887         0.000       
     123       33.5965         0.000       
     122       33.5337         0.000       
     121       32.9554         0.000       
     120       32.2999         0.000       
     119       32.0122         0.000       
     118       31.5646         0.000       
     117       31.1608         0.000       
     116       29.4141         0.000       
     115       29.2025         0.000       
     114       29.0674         0.000       
     113       28.4804         0.000       
     112       28.3057         0.000       
     111       27.8830         0.000       
     110       27.3721         0.000       
     109       26.7996         0.000       
     108       26.1279         0.000       
     107       25.6830         0.000       
     106       24.9530         0.000       
     105       24.9150         0.000       
     104       24.6938         0.000       
     103       24.1089         0.000       
     102       23.4347         0.000       
     101       22.7594         0.000       
     100       21.6123         0.000       
      99       21.4016         0.000       
      98       20.2735         0.000       
      97       19.8223         0.000       
      96       19.6536         0.000       
      95       18.6599         0.000       
      94       18.4171         0.000       
      93       17.7359         0.000       
      92       16.7368         0.000       
      91       16.4739         0.000       
      90       15.5879         0.000       
      89       15.1424         0.000       
      88       14.6500         0.000       
      87       14.2544         0.000       
      86       12.9614         0.000       
      85       12.5835         0.000       
      84       11.9506         0.000       
      83       11.8125         0.000       
      82       11.3361         0.000       
      81       11.0481         0.000       
      80       10.5418         0.000       
      79       10.4670         0.000       
      78       10.2291         0.000       
      77        9.9566         0.000       
      76        9.4110         0.000       
      75        9.0243         0.000       
      74        8.7612         0.000       
      73        8.1850         0.000       
      72        8.0137         0.000       
      71        7.8281         0.000       
      70        7.3351         0.000       
      69        6.8695         0.000       
      68        6.6564         0.000       
      67        6.3061         0.000       
      66        6.1847         0.000       
      65        5.6696         0.000       
      64        5.4570         0.000       
      63        4.9332         0.000       
      62        4.7247         0.000       
      61        4.5626         0.000       
      60        4.3264         0.000       
      59        3.9697         0.000       
      58        3.8008         0.000       
      57        3.3010         0.000       
      56        2.9989         0.000       
      55        2.8089         0.000       
      54        1.8761         0.000       
      53        1.7033         0.000       
      52        1.3689         0.000       
      51        0.7743         0.000       
      50        0.5194         0.000       
      49       -0.0918         0.000       
      48       -0.6501         0.000       
      47       -2.1411         0.000       
      46       -3.4545         0.000       
      45       -5.8560         1.000 < LUMO
      44       -6.5974         2.000 < HOMO
      43       -7.0183         2.000       
      42       -7.0762         2.000       
      41       -7.4345         2.000       
      40       -7.6949         2.000       
      39       -8.0086         2.000       
      38       -9.5333         2.000       
      37       -9.8318         2.000       
      36      -10.5042         2.000       
      35      -11.0586         2.000       
      34      -11.9302         2.000       
      33      -12.5230         2.000       
      32      -13.0616         2.000       
      31      -13.1635         2.000       
      30      -13.8916         2.000       
      29      -14.4074         2.000       
      28      -16.5733         2.000       
      27      -18.6459         2.000       
      26      -19.6706         2.000       
      25      -20.5459         2.000       
      24      -23.9110         2.000       
      23      -26.6685         2.000       
      22      -31.0533         2.000       
      21      -65.8191         2.000       
      20      -65.8231         2.000       
      19      -66.0703         2.000       
      18      -66.0883         2.000       
      17      -66.1643         2.000       
      16     -172.3898         2.000       
      15     -172.4145         2.000       
      14     -172.7483         2.000       
      13     -236.2893         2.000       
      12     -270.6730         2.000       
      11     -271.8523         2.000       
      10     -273.9543         2.000       
       9     -382.2810         2.000       
       8     -387.8083         2.000       
       7     -512.6949         2.000       
       6     -512.7402         2.000       
       5    -1526.5133         2.000       
       4    -1526.5220         2.000       
       3    -1526.6364         2.000       
       2    -1729.6454         2.000       
       1   -13296.1348         2.000       

AMS application finished. Exiting.
NORMAL TERMINATION
     Total cpu time:      61.59
  Total system time:       0.43
 Total elapsed time:      62.24
NORMAL TERMINATION with warnings
