srun: Step created for StepId=662413.156

 *******************************************************************************
 *                                                                             *
 *  --------------------------------                                           *
 *   Amsterdam Modeling Suite (AMS)              2026.103                      *
 *  --------------------------------                                           *
 *                                               r260501 2026-05-01 873454b5   *
 *                                                                             *
 *                                                                             *
 *                              =================                              *
 *                              |               |                              *
 *                              |     A M S     |                              *
 *                              |               |                              *
 *                              =================                              *
 *                                                                             *
 *                                                                             *
 *   Online information and documentation:  https://www.scm.com/support/       *
 *   E-mail:  support@scm.com   info@scm.com                                   *
 *                                                                             *
 *   Scientific publications using AMS results must be properly referenced     *
 *   See the User Manuals (or the web site) for recommended citations          *
 *   The terms and conditions of the End User License Agreement apply to       *
 *   the use of AMS, https://www.scm.com/license-terms/                        *
 *                                                                             *
 **********************  x86_64_linux_intel / intelmpi  ************************
 
 Licensed to: Jong-June Jeon / University of Seoul 2026-06-02 13:44:15
 SCM User ID: u30731
  
 AMS 2026.103  RunTime: Jun03-2026 19:50:22  ShM Nodes: 1  Procs: 1

 AMS jobname: c5_fragB_opt
 AMS jobid  : 1582117766

 Start   directory: /gpfs/home1/yeseo1ee/projects/eda-asm-prediction/ADF_800/adf_outputs/batch_003/qmrxn20_e2_A_C_D_A_B_B/
 Results directory: /gpfs/home1/yeseo1ee/projects/eda-asm-prediction/ADF_800/adf_outputs/batch_003/qmrxn20_e2_A_C_D_A_B_B/c5_fragB_opt.results/
 Scratch directory: /tmp/amstmp_c5_fragB_opt_kid0.1582117766/

 RNG seed: 951450740 -52388677 -1369414714 514802893 243731523 -292957638 -441998423 433769911



                      ************************************************************************
                      *  ADF 2026.103  RunTime: Jun03-2026 19:50:22  ShM Nodes: 1  Procs: 1  *
                      ************************************************************************
  

       ***************************
       *  GEOMETRY OPTIMIZATION  *
       ***************************

Optimization Method                    Quasi Newton
Optimization Coordinates               Delocalized Coordinates
Optimize lattice                       F
 
 ------------------------------------------------------
 Convergence criteria (Hartree,Angstrom)
 ------------------------------------------------------
 Maximum gradient               0.000100000000
 Maximum rms gradient           0.000066666667
 Maximum step allowed           0.010000000000
 Maximum rms step allowed       0.006666666667
 Maximum energy change allowe   0.000110000000
 Maximum stress energy allowe   0.000500000000
 
Initial model Hessian                  Automatic Hessian
 
------------------------------------
Quasi-Newton Optimizer Parameters
------------------------------------
Hessian Update Method                  BFGS
Maximum number of steps                  200
First GDIIS cycle                          0
Maximum GDIIS vectors                      0
Trust radius (bohr)                        0.200000
Trust radius varies                        T
Constraints converged at all steps         T
Use projector                              T
 
 Rigid motions settings for: old optimizer
 Atomic rotations (x,y,z):     T T T
 Atomic translations (x,y,z):  T T T
 Tolerance:                  1.000000000000000E-006

--------
Geometry
--------
Formula: C4H5ClN
Atoms
  Index Symbol   x (angstrom)   y (angstrom)   z (angstrom)
      1      C    -0.22893439     0.01294734    -0.28350575
      2      C    -0.12177488     0.04430742     1.17550529
      3     Cl     1.41758280    -0.23116644    -1.26381133
      4      H    -0.81885465    -0.83891415    -0.61654017
      5      H     0.28346337    -0.91152464     1.52571386
      6      C    -0.78991122     1.23717454    -0.85090009
      7      N    -1.22815113     2.23126443    -1.29787234
      8      C     0.60309363     1.24098684     1.75584407
      9      H     0.10537947     2.17451606     1.47384585
     10      H     0.59910496     1.19412039     2.84946198
     11      H     1.65067391     1.31434264     1.42922900

Total System Charge              0.00000


----------------
ADF Engine Input
----------------
 
   Basis
     Type TZ2P
     Core None
   End
   XC
     GGA BLYP
     Dispersion GRIMME3 BJDAMP
   End
   Symmetry NOSYM
   NumericalQuality Normal
   Unrestricted No
   SCF
     Iterations 200
     Converge 1.0e-6
   End
   Save TAPE21
 

 Title: *** (NO TITLE) ***

Challenging geometry: could not add a dihedral for atom    7
 Using automatic Hessian for delocalized coordinates.
 *** GO1_GOStep1 ***

 Integrated fractional orbital density (NFOD):         1.000

 Energy gradients wrt nuclear displacements
 ==========================================

     Atom      Cartesian (a.u./angstrom)
                 X         Y         Z
 ----------------------------------------
     1 C     0.059618 -0.013985  0.011922
     2 C    -0.115753 -0.009426  0.020485
     3 Cl   -0.012829  0.007085 -0.008319
     4 H    -0.000914  0.007865  0.007222
     5 H     0.026927  0.005622 -0.017379
     6 C     0.020634 -0.046538  0.023507
     7 N    -0.017167  0.042829 -0.020826
     8 C     0.048944  0.000891 -0.025715
     9 H    -0.002047 -0.004645  0.004614
    10 H    -0.004585  0.001128 -0.003187
    11 H    -0.002829  0.009174  0.007674
 ----------------------------------------
 
----------------------------------------------------------------------
Geometry Convergence after Step   1       (Hartree/Angstrom,Angstrom)
----------------------------------------------------------------------
current energy                               -2.17911776 Hartree
energy change                      -2.17911776     0.00011000    F
constrained gradient max            0.11576499     0.00010000    F
constrained gradient rms            0.02925933     0.00006667    F
gradient max                        0.11576507
gradient rms                        0.02925933
cart. step max                      0.04306467     0.01000000    F
cart. step rms                      0.02235128     0.00666667    F
 

--------
Geometry
--------
Formula: C4H5ClN
Atoms
  Index Symbol   x (angstrom)   y (angstrom)   z (angstrom)
      1      C    -0.24834878     0.02308119    -0.30837147
      2      C    -0.07871021     0.06630458     1.15182417
      3     Cl     1.42289486    -0.26407178    -1.24136320
      4      H    -0.83886720    -0.83766063    -0.62903726
      5      H     0.29555564    -0.89835773     1.51280155
      6      C    -0.81493640     1.24162955    -0.88825170
      7      N    -1.26255442     2.21092896    -1.33066368
      8      C     0.61136603     1.24813150     1.78252665
      9      H     0.12320876     2.19205808     1.51098613
     10      H     0.59899624     1.17314785     2.87595382
     11      H     1.66306735     1.31286286     1.46056537

Total System Charge              0.00000

 *** GO1_GOStep2 ***

 Integrated fractional orbital density (NFOD):         1.000

 Energy gradients wrt nuclear displacements
 ==========================================

     Atom      Cartesian (a.u./angstrom)
                 X         Y         Z
 ----------------------------------------
     1 C     0.045847 -0.015486 -0.005701
     2 C    -0.084645  0.000449  0.020476
     3 Cl   -0.011403  0.004400 -0.001346
     4 H    -0.003246  0.003737  0.002481
     5 H     0.023584  0.002891 -0.012167
     6 C    -0.012143  0.020652 -0.009085
     7 N     0.010516 -0.020825  0.008176
     8 C     0.039964 -0.000741 -0.010295
     9 H    -0.002698 -0.002316  0.003584
    10 H    -0.003155  0.002626 -0.000259
    11 H    -0.002621  0.004614  0.004137
 ----------------------------------------

 dE(predicted):    -0.66556E-02, dE(actual):    -0.63345E-02, Trust radius:    0.400000, all in a.u.
 
----------------------------------------------------------------------
Geometry Convergence after Step   2       (Hartree/Angstrom,Angstrom)
----------------------------------------------------------------------
current energy                               -2.18545225 Hartree
energy change                      -0.00633449     0.00011000    F
constrained gradient max            0.08467844     0.00010000    F
constrained gradient rms            0.02053189     0.00006667    F
gradient max                        0.08467847
gradient rms                        0.02053189
cart. step max                      0.08073018     0.01000000    F
cart. step rms                      0.02087460     0.00666667    F
 

--------
Geometry
--------
Formula: C4H5ClN
Atoms
  Index Symbol   x (angstrom)   y (angstrom)   z (angstrom)
      1      C    -0.25773125     0.02469539    -0.32547184
      2      C     0.00201997     0.06786762     1.12010218
      3     Cl     1.42696134    -0.31067425    -1.23777337
      4      H    -0.85278882    -0.84143455    -0.62964158
      5      H     0.29153660    -0.90707810     1.52479638
      6      C    -0.81941015     1.25135658    -0.89124603
      7      N    -1.28838600     2.23545681    -1.31756234
      8      C     0.60796368     1.25725885     1.78780083
      9      H     0.11990209     2.19753306     1.49717189
     10      H     0.57218675     1.16450248     2.87974418
     11      H     1.66941766     1.32857055     1.48905007

Total System Charge              0.00000

 *** GO1_GOStep3 ***

 Integrated fractional orbital density (NFOD):         1.000

 Energy gradients wrt nuclear displacements
 ==========================================

     Atom      Cartesian (a.u./angstrom)
                 X         Y         Z
 ----------------------------------------
     1 C     0.030244 -0.013384 -0.023067
     2 C    -0.038105  0.005595  0.017558
     3 Cl   -0.014719  0.003403  0.009312
     4 H    -0.003677 -0.000173  0.000868
     5 H     0.015418 -0.001737 -0.004697
     6 C     0.010171 -0.024055  0.011331
     7 N    -0.013864  0.028624 -0.013157
     8 C     0.021391  0.000351 -0.000198
     9 H    -0.002266  0.001069  0.001741
    10 H    -0.002050  0.001479  0.000968
    11 H    -0.002544 -0.001172 -0.000659
 ----------------------------------------

 dE(predicted):    -0.58921E-02, dE(actual):    -0.59072E-02, Trust radius:    0.800000, all in a.u.
 
----------------------------------------------------------------------
Geometry Convergence after Step   3       (Hartree/Angstrom,Angstrom)
----------------------------------------------------------------------
current energy                               -2.19135948 Hartree
energy change                      -0.00590722     0.00011000    F
constrained gradient max            0.03813529     0.00010000    F
constrained gradient rms            0.01402062     0.00006667    F
gradient max                        0.03813497
gradient rms                        0.01402062
cart. step max                      0.08732958     0.01000000    F
cart. step rms                      0.03465734     0.00666667    F
 

--------
Geometry
--------
Formula: C4H5ClN
Atoms
  Index Symbol   x (angstrom)   y (angstrom)   z (angstrom)
      1      C    -0.24783331     0.02151260    -0.32359499
      2      C     0.08934956     0.05384076     1.09236604
      3     Cl     1.41432726    -0.34108846    -1.31206943
      4      H    -0.85268725    -0.84153845    -0.61320345
      5      H     0.25391497    -0.92051012     1.55300223
      6      C    -0.80520934     1.25885007    -0.85389951
      7      N    -1.27253131     2.24689546    -1.24175237
      8      C     0.59711552     1.26416876     1.77157363
      9      H     0.11090536     2.18627480     1.42659100
     10      H     0.50762675     1.17805179     2.86007299
     11      H     1.67669366     1.36159723     1.53788423

Total System Charge              0.00000

 *** GO1_GOStep4 ***

 Integrated fractional orbital density (NFOD):         1.000

 Energy gradients wrt nuclear displacements
 ==========================================

     Atom      Cartesian (a.u./angstrom)
                 X         Y         Z
 ----------------------------------------
     1 C     0.021905 -0.006752 -0.024308
     2 C    -0.004625  0.004890  0.014330
     3 Cl   -0.016263  0.003329  0.012466
     4 H    -0.002753 -0.000600  0.001610
     5 H     0.004728 -0.002236 -0.001342
     6 C    -0.005844  0.011091 -0.000873
     7 N     0.003854 -0.008115  0.002914
     8 C     0.001417  0.000664 -0.001148
     9 H    -0.000655  0.001954 -0.000028
    10 H    -0.001062 -0.000894 -0.000653
    11 H    -0.000702 -0.003332 -0.002968
 ----------------------------------------

 dE(predicted):    -0.28474E-02, dE(actual):    -0.36803E-02, Trust radius:    0.800000, all in a.u.
 
----------------------------------------------------------------------
Geometry Convergence after Step   4       (Hartree/Angstrom,Angstrom)
----------------------------------------------------------------------
current energy                               -2.19503975 Hartree
energy change                      -0.00368027     0.00011000    F
constrained gradient max            0.02437248     0.00010000    F
constrained gradient rms            0.00800618     0.00006667    F
gradient max                        0.02437247
gradient rms                        0.00800618
cart. step max                      0.07841150     0.01000000    F
cart. step rms                      0.02562126     0.00666667    F
 

--------
Geometry
--------
Formula: C4H5ClN
Atoms
  Index Symbol   x (angstrom)   y (angstrom)   z (angstrom)
      1      C    -0.24229181     0.02410016    -0.31839131
      2      C     0.14050456     0.05215700     1.07482499
      3     Cl     1.39691905    -0.34966403    -1.39048093
      4      H    -0.84282612    -0.84314793    -0.59882387
      5      H     0.21145552    -0.91376203     1.56812363
      6      C    -0.80692769     1.25294282    -0.84947016
      7      N    -1.28833127     2.23875769    -1.23498180
      8      C     0.60603737     1.26325358     1.77642402
      9      H     0.13379353     2.17824594     1.39964851
     10      H     0.46562974     1.18168054     2.85991398
     11      H     1.69770897     1.38349067     1.61018332

Total System Charge              0.00000

 *** GO1_GOStep5 ***

 Integrated fractional orbital density (NFOD):         1.000

 Energy gradients wrt nuclear displacements
 ==========================================

     Atom      Cartesian (a.u./angstrom)
                 X         Y         Z
 ----------------------------------------
     1 C     0.017766 -0.003598 -0.016766
     2 C     0.006256  0.001850  0.007077
     3 Cl   -0.015627  0.002984  0.010536
     4 H    -0.001476  0.000177  0.000978
     5 H    -0.001407  0.000778 -0.000204
     6 C    -0.000782 -0.001342  0.002086
     7 N    -0.000807  0.001550 -0.000839
     8 C    -0.006522 -0.001177 -0.000083
     9 H     0.000690  0.000123 -0.000350
    10 H     0.000636 -0.000253 -0.000742
    11 H     0.001274 -0.001090 -0.001692
 ----------------------------------------

 dE(predicted):    -0.91741E-03, dE(actual):    -0.11123E-02, Trust radius:    0.800000, all in a.u.
 
----------------------------------------------------------------------
Geometry Convergence after Step   5       (Hartree/Angstrom,Angstrom)
----------------------------------------------------------------------
current energy                               -2.19615203 Hartree
energy change                      -0.00111228     0.00011000    F
constrained gradient max            0.01781847     0.00010000    F
constrained gradient rms            0.00586125     0.00006667    F
gradient max                        0.01781845
gradient rms                        0.00586125
cart. step max                      0.03139457     0.01000000    F
cart. step rms                      0.00959227     0.00666667    F
 

--------
Geometry
--------
Formula: C4H5ClN
Atoms
  Index Symbol   x (angstrom)   y (angstrom)   z (angstrom)
      1      C    -0.25115112     0.02559481    -0.31282905
      2      C     0.15456376     0.05254160     1.06733307
      3     Cl     1.39781858    -0.34676567    -1.41429182
      4      H    -0.84148990    -0.84738108    -0.59503144
      5      H     0.19865984    -0.90913050     1.57094227
      6      C    -0.81267669     1.25061277    -0.85146408
      7      N    -1.29693181     2.23313003    -1.23994440
      8      C     0.61377726     1.26198176     1.77850012
      9      H     0.14919286     2.17688500     1.39266699
     10      H     0.45128553     1.18157799     2.85951083
     11      H     1.70862354     1.38900771     1.64157790

Total System Charge              0.00000

 *** GO1_GOStep6 ***

 Integrated fractional orbital density (NFOD):         1.000

 Energy gradients wrt nuclear displacements
 ==========================================

     Atom      Cartesian (a.u./angstrom)
                 X         Y         Z
 ----------------------------------------
     1 C     0.014687 -0.003393 -0.012655
     2 C     0.008074  0.000273  0.002558
     3 Cl   -0.014030  0.002916  0.009154
     4 H    -0.001235  0.000016  0.000745
     5 H    -0.003195  0.001807  0.000454
     6 C    -0.001671  0.001023  0.000060
     7 N     0.000285 -0.001063  0.000211
     8 C    -0.006597 -0.002235  0.000567
     9 H     0.000845 -0.000242 -0.000322
    10 H     0.001163  0.000296 -0.000331
    11 H     0.001673  0.000602 -0.000442
 ----------------------------------------

 dE(predicted):    -0.27024E-03, dE(actual):    -0.42414E-03, Trust radius:    0.800000, all in a.u.
 
----------------------------------------------------------------------
Geometry Convergence after Step   6       (Hartree/Angstrom,Angstrom)
----------------------------------------------------------------------
current energy                               -2.19657616 Hartree
energy change                      -0.00042414     0.00011000    F
constrained gradient max            0.01472997     0.00010000    F
constrained gradient rms            0.00499540     0.00006667    F
gradient max                        0.01472979
gradient rms                        0.00499540
cart. step max                      0.03833966     0.01000000    F
cart. step rms                      0.01243332     0.00666667    F
 

--------
Geometry
--------
Formula: C4H5ClN
Atoms
  Index Symbol   x (angstrom)   y (angstrom)   z (angstrom)
      1      C    -0.27948213     0.02903795    -0.29713412
      2      C     0.16519638     0.05372403     1.05822650
      3     Cl     1.41057375    -0.34445860    -1.43872734
      4      H    -0.84480076    -0.85507251    -0.59124872
      5      H     0.20142112    -0.90566948     1.56851320
      6      C    -0.82535710     1.24914183    -0.85435071
      7      N    -1.30351249     2.23000558    -1.25310111
      8      C     0.62459566     1.26126528     1.78059954
      9      H     0.16953072     2.17763684     1.38623790
     10      H     0.43233522     1.18132463     2.85803767
     11      H     1.72117149     1.39111890     1.67991756

Total System Charge              0.00000

 *** GO1_GOStep7 ***

 Integrated fractional orbital density (NFOD):         1.000

 Energy gradients wrt nuclear displacements
 ==========================================

     Atom      Cartesian (a.u./angstrom)
                 X         Y         Z
 ----------------------------------------
     1 C     0.010995 -0.004150 -0.006923
     2 C     0.007281 -0.001449 -0.004134
     3 Cl   -0.011619  0.002963  0.007046
     4 H    -0.000904 -0.000166  0.000504
     5 H    -0.004596  0.001819  0.001822
     6 C    -0.002594  0.003590 -0.002639
     7 N     0.001285 -0.003265  0.001299
     8 C    -0.002784 -0.003105  0.001371
     9 H     0.000392 -0.000012 -0.000261
    10 H     0.001311  0.000929  0.000600
    11 H     0.001233  0.002846  0.001315
 ----------------------------------------

 dE(predicted):    -0.50084E-03, dE(actual):    -0.78477E-03, Trust radius:    0.800000, all in a.u.
 
----------------------------------------------------------------------
Geometry Convergence after Step   7       (Hartree/Angstrom,Angstrom)
----------------------------------------------------------------------
current energy                               -2.19736093 Hartree
energy change                      -0.00078477     0.00011000    F
constrained gradient max            0.01151257     0.00010000    F
constrained gradient rms            0.00409935     0.00006667    F
gradient max                        0.01151272
gradient rms                        0.00409935
cart. step max                      0.06359608     0.01000000    F
cart. step rms                      0.02139283     0.00666667    F
 

--------
Geometry
--------
Formula: C4H5ClN
Atoms
  Index Symbol   x (angstrom)   y (angstrom)   z (angstrom)
      1      C    -0.34307821     0.03912877    -0.25993408
      2      C     0.17059574     0.05785698     1.04606754
      3     Cl     1.44887220    -0.35716779    -1.45860684
      4      H    -0.85863407    -0.86147295    -0.58561796
      5      H     0.24710053    -0.90601661     1.54741836
      6      C    -0.84742843     1.25204239    -0.85284214
      7      N    -1.30419456     2.23367543    -1.27349167
      8      C     0.63372498     1.26321931     1.78121638
      9      H     0.19263683     2.18281398     1.37761159
     10      H     0.40195808     1.18179509     2.85282001
     11      H     1.73011879     1.38217982     1.72232916

Total System Charge              0.00000

 *** GO1_GOStep8 ***

 Integrated fractional orbital density (NFOD):         1.000

 Energy gradients wrt nuclear displacements
 ==========================================

     Atom      Cartesian (a.u./angstrom)
                 X         Y         Z
 ----------------------------------------
     1 C     0.010684 -0.005467  0.001725
     2 C     0.001073 -0.001745 -0.013859
     3 Cl   -0.009806  0.003237  0.004670
     4 H    -0.000568  0.000347  0.000390
     5 H    -0.004708  0.000545  0.003316
     6 C    -0.002524  0.005579 -0.005894
     7 N     0.001960 -0.005450  0.002973
     8 C     0.004922 -0.003546  0.002513
     9 H    -0.000809  0.000753 -0.000365
    10 H     0.000788  0.001229  0.001772
    11 H    -0.001012  0.004517  0.002760
 ----------------------------------------

 dE(predicted):    -0.87941E-03, dE(actual):    -0.14540E-02, Trust radius:    0.800000, all in a.u.
 
----------------------------------------------------------------------
Geometry Convergence after Step   8       (Hartree/Angstrom,Angstrom)
----------------------------------------------------------------------
current energy                               -2.19881496 Hartree
energy change                      -0.00145403     0.00011000    F
constrained gradient max            0.01389032     0.00010000    F
constrained gradient rms            0.00460245     0.00006667    F
gradient max                        0.01389023
gradient rms                        0.00460245
cart. step max                      0.14248211     0.01000000    F
cart. step rms                      0.04735189     0.00666667    F
 

--------
Geometry
--------
Formula: C4H5ClN
Atoms
  Index Symbol   x (angstrom)   y (angstrom)   z (angstrom)
      1      C    -0.48556032     0.06412506    -0.17296267
      2      C     0.16153031     0.07007340     1.02428838
      3     Cl     1.56284421    -0.39306753    -1.43746722
      4      H    -0.88754950    -0.85631660    -0.58056820
      5      H     0.35998542    -0.90477660     1.47343179
      6      C    -0.90372545     1.25686660    -0.83346781
      7      N    -1.29820240     2.24303448    -1.30553014
      8      C     0.64008151     1.26849558     1.77290235
      9      H     0.22554461     2.19724529     1.36413519
     10      H     0.36203555     1.17991835     2.83590301
     11      H     1.73468793     1.34245639     1.75630569

Total System Charge              0.00000

 *** GO1_GOStep9 ***

 Integrated fractional orbital density (NFOD):         1.000

 Energy gradients wrt nuclear displacements
 ==========================================

     Atom      Cartesian (a.u./angstrom)
                 X         Y         Z
 ----------------------------------------
     1 C     0.017069 -0.003463  0.035027
     2 C    -0.023461  0.001578 -0.039405
     3 Cl   -0.007167  0.002838 -0.000020
     4 H     0.001437  0.004102 -0.001181
     5 H    -0.000592 -0.001488  0.002060
     6 C     0.003964 -0.000865 -0.009547
     7 N     0.002104 -0.006310  0.005384
     8 C     0.013603 -0.001956  0.002353
     9 H    -0.002222  0.001148 -0.000688
    10 H    -0.000036  0.000382  0.003013
    11 H    -0.004700  0.004035  0.003005
 ----------------------------------------

 dE(predicted):    -0.21587E-02, dE(actual):    -0.23618E-02, Trust radius:    1.000000, all in a.u.
 
----------------------------------------------------------------------
Geometry Convergence after Step   9       (Hartree/Angstrom,Angstrom)
----------------------------------------------------------------------
current energy                               -2.20117679 Hartree
energy change                      -0.00236183     0.00011000    F
constrained gradient max            0.03942341     0.00010000    F
constrained gradient rms            0.01122890     0.00006667    F
gradient max                        0.03942334
gradient rms                        0.01122890
cart. step max                      0.06895347     0.01000000    F
cart. step rms                      0.02616619     0.00666667    F
 

--------
Geometry
--------
Formula: C4H5ClN
Atoms
  Index Symbol   x (angstrom)   y (angstrom)   z (angstrom)
      1      C    -0.52244089     0.06910800    -0.16554592
      2      C     0.14597488     0.06776749     1.02950464
      3     Cl     1.63179768    -0.37623925    -1.37297157
      4      H    -0.88181514    -0.85775343    -0.60091273
      5      H     0.36939244    -0.90831035     1.46329616
      6      C    -0.94732841     1.26324059    -0.81943749
      7      N    -1.33667419     2.25177471    -1.29445598
      8      C     0.64625864     1.26594220     1.75933378
      9      H     0.26977500     2.20050681     1.33006536
     10      H     0.35289488     1.20279701     2.81938666
     11      H     1.74383698     1.28922065     1.74870746

Total System Charge              0.00000

 *** GO1_GOStep10 ***

 Integrated fractional orbital density (NFOD):         1.000

 Energy gradients wrt nuclear displacements
 ==========================================

     Atom      Cartesian (a.u./angstrom)
                 X         Y         Z
 ----------------------------------------
     1 C     0.008691 -0.002282  0.022763
     2 C    -0.018020  0.000247 -0.017793
     3 Cl   -0.003880  0.001603 -0.001782
     4 H     0.002387  0.002402 -0.002402
     5 H     0.001074 -0.001435  0.001583
     6 C     0.002191 -0.000906 -0.009172
     7 N     0.001245 -0.002537  0.003463
     8 C     0.011677 -0.000164  0.000674
     9 H    -0.001683  0.001019 -0.000404
    10 H    -0.000472 -0.000473  0.001588
    11 H    -0.003211  0.002528  0.001484
 ----------------------------------------
 Rebuilding optimization coordinates

 dE(predicted):    -0.70810E-03, dE(actual):    -0.10376E-02, Trust radius:    1.000000, all in a.u.
 
----------------------------------------------------------------------
Geometry Convergence after Step  10       (Hartree/Angstrom,Angstrom)
----------------------------------------------------------------------
current energy                               -2.20221434 Hartree
energy change                      -0.00103756     0.00011000    F
constrained gradient max            0.02272470     0.00010000    F
constrained gradient rms            0.00686761     0.00006667    F
gradient max                        0.02272242
gradient rms                        0.00686761
cart. step max                      0.10131081     0.01000000    F
cart. step rms                      0.03647777     0.00666667    F
 

--------
Geometry
--------
Formula: C4H5ClN
Atoms
  Index Symbol   x (angstrom)   y (angstrom)   z (angstrom)
      1      C    -0.54870798     0.07685986    -0.17335795
      2      C     0.15241553     0.06422830     1.02082538
      3     Cl     1.72056243    -0.38468251    -1.27166076
      4      H    -0.88783486    -0.85510645    -0.61957546
      5      H     0.38847268    -0.91324301     1.43802552
      6      C    -0.99819273     1.28119853    -0.79054726
      7      N    -1.40175507     2.27197634    -1.25334223
      8      C     0.64783098     1.26284763     1.73649462
      9      H     0.32524829     2.19895911     1.27283939
     10      H     0.32499929     1.23517458     2.78784079
     11      H     1.74863332     1.22984206     1.74942833

Total System Charge              0.00000

 *** GO1_GOStep11 ***

 Integrated fractional orbital density (NFOD):         1.000

 Energy gradients wrt nuclear displacements
 ==========================================

     Atom      Cartesian (a.u./angstrom)
                 X         Y         Z
 ----------------------------------------
     1 C    -0.000783 -0.000701 -0.000898
     2 C     0.000806 -0.000364  0.012456
     3 Cl   -0.001170  0.000371 -0.002225
     4 H     0.001606 -0.001341 -0.001525
     5 H     0.000570  0.000242  0.000062
     6 C     0.000169  0.001423 -0.005005
     7 N    -0.000365  0.001167  0.000670
     8 C    -0.001227  0.000711 -0.001592
     9 H     0.000129  0.000177  0.000035
    10 H    -0.000191 -0.000603 -0.000389
    11 H     0.000455 -0.001082 -0.001587
 ----------------------------------------

 dE(predicted):    -0.78491E-03, dE(actual):    -0.87119E-03, Trust radius:    1.000000, all in a.u.
 
----------------------------------------------------------------------
Geometry Convergence after Step  11       (Hartree/Angstrom,Angstrom)
----------------------------------------------------------------------
current energy                               -2.20308553 Hartree
energy change                      -0.00087119     0.00011000    F
constrained gradient max            0.01241572     0.00010000    F
constrained gradient rms            0.00251845     0.00006667    F
gradient max                        0.01241572
gradient rms                        0.00251845
cart. step max                      0.05708789     0.01000000    F
cart. step rms                      0.02320659     0.00666667    F
 

--------
Geometry
--------
Formula: C4H5ClN
Atoms
  Index Symbol   x (angstrom)   y (angstrom)   z (angstrom)
      1      C    -0.59403087     0.08565038    -0.15344272
      2      C     0.16003051     0.06775167     0.99865488
      3     Cl     1.77765032    -0.40305114    -1.22126515
      4      H    -0.90282063    -0.84502347    -0.61985418
      5      H     0.42229371    -0.91031394     1.39824506
      6      C    -1.03187365     1.28486028    -0.77384857
      7      N    -1.42438792     2.27601900    -1.24642258
      8      C     0.65464171     1.26156673     1.72459119
      9      H     0.35575757     2.20012968     1.25143484
     10      H     0.30166141     1.23991879     2.76692270
     11      H     1.75274970     1.21054644     1.77195492

Total System Charge              0.00000

 *** GO1_GOStep12 ***

 Integrated fractional orbital density (NFOD):         1.000

 Energy gradients wrt nuclear displacements
 ==========================================

     Atom      Cartesian (a.u./angstrom)
                 X         Y         Z
 ----------------------------------------
     1 C    -0.003572  0.001587  0.008071
     2 C    -0.004700  0.000885  0.003590
     3 Cl    0.000709 -0.000170 -0.004045
     4 H     0.003836  0.001196 -0.001389
     5 H     0.001534  0.000337 -0.000196
     6 C     0.003646 -0.003094 -0.004087
     7 N    -0.000110  0.000611  0.001028
     8 C    -0.002567  0.001146 -0.001600
     9 H     0.000254 -0.000489 -0.000131
    10 H     0.000508 -0.000476 -0.000116
    11 H     0.000463 -0.001535 -0.001125
 ----------------------------------------

 dE(predicted):    -0.25744E-03, dE(actual):    -0.34226E-03, Trust radius:    1.000000, all in a.u.
 
----------------------------------------------------------------------
Geometry Convergence after Step  12       (Hartree/Angstrom,Angstrom)
----------------------------------------------------------------------
current energy                               -2.20342779 Hartree
energy change                      -0.00034226     0.00011000    F
constrained gradient max            0.00800515     0.00010000    F
constrained gradient rms            0.00252008     0.00006667    F
gradient max                        0.00800515
gradient rms                        0.00252008
cart. step max                      0.14181125     0.01000000    F
cart. step rms                      0.04525153     0.00666667    F
 

--------
Geometry
--------
Formula: C4H5ClN
Atoms
  Index Symbol   x (angstrom)   y (angstrom)   z (angstrom)
      1      C    -0.64162133     0.10145727    -0.15190968
      2      C     0.18248396     0.06990125     0.95650509
      3     Cl     1.87475346    -0.43204622    -1.07945390
      4      H    -0.93450064    -0.82724657    -0.62938701
      5      H     0.46208248    -0.91051437     1.33489191
      6      C    -1.10006022     1.29867562    -0.74814421
      7      N    -1.50032699     2.28817709    -1.22030037
      8      C     0.67384689     1.25472158     1.69869296
      9      H     0.42109362     2.19634059     1.20658955
     10      H     0.26778980     1.25159549     2.72177348
     11      H     1.76613084     1.17699268     1.80771255

Total System Charge              0.00000

 *** GO1_GOStep13 ***

 Integrated fractional orbital density (NFOD):         1.000

 Energy gradients wrt nuclear displacements
 ==========================================

     Atom      Cartesian (a.u./angstrom)
                 X         Y         Z
 ----------------------------------------
     1 C    -0.008663  0.003193  0.001717
     2 C    -0.002784  0.001502  0.008678
     3 Cl    0.002654 -0.001346 -0.004942
     4 H     0.004950  0.002833 -0.000099
     5 H     0.002804  0.001036 -0.000673
     6 C     0.003017 -0.004348 -0.002669
     7 N     0.000256  0.000237  0.000423
     8 C    -0.007294  0.000093 -0.002175
     9 H     0.000625 -0.001394 -0.000153
    10 H     0.002126  0.000084 -0.000186
    11 H     0.002309 -0.001890  0.000079
 ----------------------------------------

 dE(predicted):    -0.44154E-03, dE(actual):    -0.75321E-03, Trust radius:    1.000000, all in a.u.
 
----------------------------------------------------------------------
Geometry Convergence after Step  13       (Hartree/Angstrom,Angstrom)
----------------------------------------------------------------------
current energy                               -2.20418100 Hartree
energy change                      -0.00075321     0.00011000    F
constrained gradient max            0.00866153     0.00010000    F
constrained gradient rms            0.00329247     0.00006667    F
gradient max                        0.00866153
gradient rms                        0.00329247
cart. step max                      0.21096040     0.01000000    F
cart. step rms                      0.06028278     0.00666667    F
 

--------
Geometry
--------
Formula: C4H5ClN
Atoms
  Index Symbol   x (angstrom)   y (angstrom)   z (angstrom)
      1      C    -0.67374159     0.11954892    -0.16663671
      2      C     0.22826144     0.06732210     0.89354221
      3     Cl     1.97839154    -0.46189184    -0.86849350
      4      H    -0.98521545    -0.79995152    -0.64750591
      5      H     0.49324310    -0.91879083     1.26267946
      6      C    -1.18156409     1.31719576    -0.71480665
      7      N    -1.61049793     2.30243172    -1.17383489
      8      C     0.70586157     1.24245102     1.66010334
      9      H     0.50532016     2.18477013     1.14568502
     10      H     0.22677122     1.26296171     2.65103435
     11      H     1.78484189     1.15200727     1.85520365

Total System Charge              0.00000

 *** GO1_GOStep14 ***

 Integrated fractional orbital density (NFOD):         1.000

 Energy gradients wrt nuclear displacements
 ==========================================

     Atom      Cartesian (a.u./angstrom)
                 X         Y         Z
 ----------------------------------------
     1 C    -0.007316 -0.000074 -0.005214
     2 C     0.000502  0.003913  0.016423
     3 Cl    0.003503 -0.003014 -0.003803
     4 H     0.003422  0.005078  0.000749
     5 H     0.004175  0.001246 -0.002505
     6 C    -0.003233 -0.000550 -0.002919
     7 N     0.001275 -0.001004 -0.000477
     8 C    -0.011196 -0.003822 -0.005083
     9 H     0.000548 -0.001983 -0.000163
    10 H     0.004177  0.000764  0.000406
    11 H     0.004144 -0.000553  0.002585
 ----------------------------------------

 dE(predicted):    -0.14103E-02, dE(actual):    -0.12180E-02, Trust radius:    1.000000, all in a.u.
 
----------------------------------------------------------------------
Geometry Convergence after Step  14       (Hartree/Angstrom,Angstrom)
----------------------------------------------------------------------
current energy                               -2.20539904 Hartree
energy change                      -0.00121803     0.00011000    F
constrained gradient max            0.01637634     0.00010000    F
constrained gradient rms            0.00460376     0.00006667    F
gradient max                        0.01637634
gradient rms                        0.00460376
cart. step max                      0.21143247     0.01000000    F
cart. step rms                      0.06520806     0.00666667    F
 

--------
Geometry
--------
Formula: C4H5ClN
Atoms
  Index Symbol   x (angstrom)   y (angstrom)   z (angstrom)
      1      C    -0.66983059     0.12723787    -0.19695501
      2      C     0.28950435     0.05977960     0.82330923
      3     Cl     2.05761642    -0.44096902    -0.65706103
      4      H    -1.03517337    -0.77671046    -0.67685339
      5      H     0.46090707    -0.93380599     1.22132567
      6      C    -1.24929185     1.32557030    -0.67301693
      7      N    -1.73733784     2.30031990    -1.09870300
      8      C     0.75117901     1.22694366     1.61475575
      9      H     0.62739890     2.16602218     1.06869914
     10      H     0.17523346     1.28956454     2.55121232
     11      H     1.80146632     1.12410184     1.92025762

Total System Charge              0.00000

 *** GO1_GOStep15 ***

 Integrated fractional orbital density (NFOD):         1.000

 Energy gradients wrt nuclear displacements
 ==========================================

     Atom      Cartesian (a.u./angstrom)
                 X         Y         Z
 ----------------------------------------
     1 C     0.013611 -0.011716  0.000906
     2 C    -0.005034  0.012884  0.016992
     3 Cl    0.003426 -0.003373 -0.000896
     4 H    -0.003106  0.004495 -0.002487
     5 H     0.000604  0.001446 -0.006580
     6 C    -0.012943  0.006628 -0.001349
     7 N     0.001975 -0.001981 -0.002017
     8 C    -0.008182 -0.010819 -0.011037
     9 H     0.000055 -0.001027  0.000152
    10 H     0.005272  0.000701  0.001273
    11 H     0.004321  0.002763  0.005043
 ----------------------------------------
 Rebuilding optimization coordinates
Challenging geometry: could not add a dihedral for atom    7

 dE(predicted):    -0.13338E-02, dE(actual):    -0.11874E-02, Trust radius:    1.000000, all in a.u.
 
----------------------------------------------------------------------
Geometry Convergence after Step  15       (Hartree/Angstrom,Angstrom)
----------------------------------------------------------------------
current energy                               -2.20658647 Hartree
energy change                      -0.00118743     0.00011000    F
constrained gradient max            0.01693614     0.00010000    F
constrained gradient rms            0.00679229     0.00006667    F
gradient max                        0.01693614
gradient rms                        0.00679229
cart. step max                      0.20111774     0.01000000    F
cart. step rms                      0.07593462     0.00666667    F
 

--------
Geometry
--------
Formula: C4H5ClN
Atoms
  Index Symbol   x (angstrom)   y (angstrom)   z (angstrom)
      1      C    -0.70364857     0.13792742    -0.19293666
      2      C     0.37625935     0.04242536     0.73131155
      3     Cl     2.13799290    -0.42280745    -0.45594329
      4      H    -1.07957811    -0.75821642    -0.68459948
      5      H     0.48386513    -0.94154429     1.17339738
      6      C    -1.31111714     1.33870807    -0.60513830
      7      N    -1.83920865     2.31167188    -0.99243687
      8      C     0.78579237     1.21119759     1.55479293
      9      H     0.77908973     2.13640506     0.97045351
     10      H     0.07119679     1.33173938     2.38583355
     11      H     1.77102806     1.08054782     2.01223605

Total System Charge              0.00000

 *** GO1_GOStep16 ***

 Integrated fractional orbital density (NFOD):         1.000

 Energy gradients wrt nuclear displacements
 ==========================================

     Atom      Cartesian (a.u./angstrom)
                 X         Y         Z
 ----------------------------------------
     1 C     0.006003 -0.007754  0.012809
     2 C    -0.014101  0.015164  0.012533
     3 Cl    0.013323 -0.006122  0.003306
     4 H    -0.001907  0.002024 -0.003572
     5 H     0.006218  0.001487 -0.009212
     6 C    -0.013562  0.012241 -0.002180
     7 N     0.001874 -0.003491 -0.002512
     8 C     0.000250 -0.015890 -0.018822
     9 H    -0.001303 -0.000353  0.000113
    10 H     0.002833 -0.000665  0.002622
    11 H     0.000373  0.003359  0.004914
 ----------------------------------------

 dE(predicted):    -0.81052E-03, dE(actual):    -0.98591E-03, Trust radius:    1.000000, all in a.u.
 
----------------------------------------------------------------------
Geometry Convergence after Step  16       (Hartree/Angstrom,Angstrom)
----------------------------------------------------------------------
current energy                               -2.20757237 Hartree
energy change                      -0.00098591     0.00011000    F
constrained gradient max            0.01877359     0.00010000    F
constrained gradient rms            0.00823546     0.00006667    F
gradient max                        0.01877706
gradient rms                        0.00823546
cart. step max                      0.21709439     0.01000000    F
cart. step rms                      0.06040233     0.00666667    F
 

--------
Geometry
--------
Formula: C4H5ClN
Atoms
  Index Symbol   x (angstrom)   y (angstrom)   z (angstrom)
      1      C    -0.61514673     0.10634839    -0.21769161
      2      C     0.37201611     0.03238041     0.77200646
      3     Cl     2.04556038    -0.40996923    -0.67303768
      4      H    -1.06176573    -0.79296612    -0.65587954
      5      H     0.40970592    -0.94271580     1.24774867
      6      C    -1.20400110     1.32744385    -0.61063068
      7      N    -1.73480552     2.30825655    -0.97123850
      8      C     0.74916030     1.22464236     1.57981704
      9      H     0.69287413     2.14634703     0.99078055
     10      H     0.06055761     1.32381761     2.43390786
     11      H     1.75751650     1.14446939     2.00118781

Total System Charge              0.00000

 *** GO1_GOStep17 ***

 Integrated fractional orbital density (NFOD):         1.000

 Energy gradients wrt nuclear displacements
 ==========================================

     Atom      Cartesian (a.u./angstrom)
                 X         Y         Z
 ----------------------------------------
     1 C     0.040579 -0.014779  0.012475
     2 C    -0.006109  0.016870  0.002381
     3 Cl    0.005634 -0.003300 -0.010616
     4 H    -0.010344 -0.004984 -0.003246
     5 H    -0.013294  0.002257 -0.003666
     6 C    -0.006709  0.011063  0.008965
     7 N    -0.000634 -0.001850 -0.002930
     8 C    -0.013680 -0.013222 -0.008459
     9 H     0.000185  0.001111 -0.000133
    10 H     0.003245  0.002426  0.002403
    11 H     0.001128  0.004410  0.002826
 ----------------------------------------

 dE(predicted):    -0.48323E-02, dE(actual):     0.95535E-03, Trust radius:    0.131112, all in a.u.
 
----------------------------------------------------------------------
Geometry Convergence after Step  17       (Hartree/Angstrom,Angstrom)
----------------------------------------------------------------------
current energy                               -2.20661702 Hartree
energy change                       0.00095535     0.00011000    F
constrained gradient max            0.04055201     0.00010000    F
constrained gradient rms            0.01042570     0.00006667    F
gradient max                        0.04054697
gradient rms                        0.01042570
cart. step max                      0.05784211     0.01000000    F
cart. step rms                      0.01976794     0.00666667    F
 

--------
Geometry
--------
Formula: C4H5ClN
Atoms
  Index Symbol   x (angstrom)   y (angstrom)   z (angstrom)
      1      C    -0.64690954     0.11248794    -0.22399844
      2      C     0.36063366     0.03670422     0.76751398
      3     Cl     2.04725757    -0.37328465    -0.61519557
      4      H    -1.06759866    -0.79414988    -0.66418448
      5      H     0.42036817    -0.93618310     1.24915596
      6      C    -1.23292581     1.32072764    -0.63440803
      7      N    -1.75707689     2.30258829    -1.00258124
      8      C     0.76666417     1.22167135     1.58416803
      9      H     0.71989483     2.14994112     1.00552359
     10      H     0.08326299     1.31793688     2.44267066
     11      H     1.77810137     1.10961462     1.98830591

Total System Charge              0.00000

 *** GO1_GOStep18 ***

 Integrated fractional orbital density (NFOD):         1.000

 Energy gradients wrt nuclear displacements
 ==========================================

     Atom      Cartesian (a.u./angstrom)
                 X         Y         Z
 ----------------------------------------
     1 C     0.022595 -0.008497 -0.001165
     2 C    -0.010754  0.012310  0.011089
     3 Cl    0.008243 -0.002445 -0.008849
     4 H    -0.007034 -0.002367 -0.002099
     5 H    -0.006391  0.000720 -0.001179
     6 C    -0.007023  0.007343  0.005556
     7 N     0.000572 -0.003418 -0.001724
     8 C    -0.004008 -0.008609 -0.005423
     9 H     0.000042  0.000918  0.000277
    10 H     0.002185  0.000864  0.001612
    11 H     0.001574  0.003180  0.001905
 ----------------------------------------

 dE(predicted):    -0.16659E-02, dE(actual):    -0.18436E-02, Trust radius:    0.262225, all in a.u.
 
----------------------------------------------------------------------
Geometry Convergence after Step  18       (Hartree/Angstrom,Angstrom)
----------------------------------------------------------------------
current energy                               -2.20846065 Hartree
energy change                      -0.00184363     0.00011000    F
constrained gradient max            0.02257719     0.00010000    F
constrained gradient rms            0.00679217     0.00006667    F
gradient max                        0.02257359
gradient rms                        0.00679217
cart. step max                      0.09218370     0.01000000    F
cart. step rms                      0.02352979     0.00666667    F
 

--------
Geometry
--------
Formula: C4H5ClN
Atoms
  Index Symbol   x (angstrom)   y (angstrom)   z (angstrom)
      1      C    -0.67455940     0.12105768    -0.22071251
      2      C     0.38823001     0.02384676     0.74154988
      3     Cl     2.04094056    -0.36864596    -0.52301187
      4      H    -1.08910842    -0.78735686    -0.65244747
      5      H     0.47512230    -0.94240545     1.23570934
      6      C    -1.24571459     1.32852471    -0.63253377
      7      N    -1.75085883     2.32532612    -0.99102893
      8      C     0.76872747     1.21723834     1.56657112
      9      H     0.71109511     2.14433592     0.98767966
     10      H     0.06973844     1.29735945     2.41410073
     11      H     1.77805921     1.10877374     1.97109421

Total System Charge              0.00000

 *** GO1_GOStep19 ***

 Integrated fractional orbital density (NFOD):         1.000

 Energy gradients wrt nuclear displacements
 ==========================================

     Atom      Cartesian (a.u./angstrom)
                 X         Y         Z
 ----------------------------------------
     1 C     0.008890  0.000947 -0.007118
     2 C    -0.015554  0.005395  0.017109
     3 Cl    0.008589 -0.003794 -0.003168
     4 H    -0.002347  0.000349  0.001436
     5 H     0.006477 -0.001663 -0.001580
     6 C    -0.007362  0.007267  0.000466
     7 N     0.001337 -0.003746 -0.000349
     8 C     0.000271 -0.005651 -0.007701
     9 H    -0.000983  0.000553  0.000251
    10 H     0.000450 -0.000476  0.001218
    11 H     0.000232  0.000818 -0.000565
 ----------------------------------------

 dE(predicted):    -0.20134E-02, dE(actual):    -0.17820E-02, Trust radius:    0.524450, all in a.u.
 
----------------------------------------------------------------------
Geometry Convergence after Step  19       (Hartree/Angstrom,Angstrom)
----------------------------------------------------------------------
current energy                               -2.21024262 Hartree
energy change                      -0.00178197     0.00011000    F
constrained gradient max            0.01707659     0.00010000    F
constrained gradient rms            0.00568364     0.00006667    F
gradient max                        0.01707650
gradient rms                        0.00568364
cart. step max                      0.14544064     0.01000000    F
cart. step rms                      0.04595641     0.00666667    F
 

--------
Geometry
--------
Formula: C4H5ClN
Atoms
  Index Symbol   x (angstrom)   y (angstrom)   z (angstrom)
      1      C    -0.70390814     0.11382078    -0.22915497
      2      C     0.43966901     0.01167876     0.67941883
      3     Cl     2.03303546    -0.28358649    -0.37757123
      4      H    -1.11292506    -0.79593298    -0.65845009
      5      H     0.45384080    -0.93253810     1.22230557
      6      C    -1.28151192     1.31244325    -0.61121467
      7      N    -1.78491539     2.32392355    -0.93989611
      8      C     0.80218562     1.20703458     1.53532497
      9      H     0.81119092     2.13001698     0.94714001
     10      H     0.03879050     1.31028764     2.32191534
     11      H     1.77622006     1.07090646     2.00715273

Total System Charge              0.00000

 *** GO1_GOStep20 ***

 Integrated fractional orbital density (NFOD):         1.000

 Energy gradients wrt nuclear displacements
 ==========================================

     Atom      Cartesian (a.u./angstrom)
                 X         Y         Z
 ----------------------------------------
     1 C    -0.002335  0.003895 -0.003738
     2 C    -0.020342 -0.002629 -0.001034
     3 Cl   -0.002473  0.006739  0.019502
     4 H     0.000009  0.002295  0.001564
     5 H     0.008530  0.000556 -0.004393
     6 C    -0.002861 -0.001501  0.001642
     7 N     0.001417 -0.002772 -0.000247
     8 C     0.021484 -0.005602 -0.012708
     9 H    -0.001497  0.000787  0.000769
    10 H    -0.001591 -0.003633 -0.000582
    11 H    -0.000342  0.001864 -0.000774
 ----------------------------------------

 dE(predicted):    -0.22907E-02, dE(actual):    -0.66775E-03, Trust radius:    0.524450, all in a.u.
 
----------------------------------------------------------------------
Geometry Convergence after Step  20       (Hartree/Angstrom,Angstrom)
----------------------------------------------------------------------
current energy                               -2.21091037 Hartree
energy change                      -0.00066775     0.00011000    F
constrained gradient max            0.02149114     0.00010000    F
constrained gradient rms            0.00715446     0.00006667    F
gradient max                        0.02149181
gradient rms                        0.00715446
cart. step max                      0.11242584     0.01000000    F
cart. step rms                      0.02942933     0.00666667    F
 

--------
Geometry
--------
Formula: C4H5ClN
Atoms
  Index Symbol   x (angstrom)   y (angstrom)   z (angstrom)
      1      C    -0.69977824     0.11383394    -0.20283513
      2      C     0.46440239     0.01347579     0.67544777
      3     Cl     2.03877099    -0.33096880    -0.48999707
      4      H    -1.11529320    -0.79792831    -0.61869450
      5      H     0.48608737    -0.93036979     1.21925663
      6      C    -1.26251302     1.31506575    -0.59891596
      7      N    -1.74897423     2.33307882    -0.93490450
      8      C     0.77996631     1.21421096     1.54223592
      9      H     0.80461066     2.13508057     0.95138358
     10      H    -0.01168557     1.31394357     2.30060006
     11      H     1.73607842     1.08863193     2.05339357

Total System Charge              0.00000

 *** GO1_GOStep21 ***

 Integrated fractional orbital density (NFOD):         1.000

 Energy gradients wrt nuclear displacements
 ==========================================

     Atom      Cartesian (a.u./angstrom)
                 X         Y         Z
 ----------------------------------------
     1 C    -0.008035  0.007580 -0.000623
     2 C    -0.006622 -0.000967  0.000707
     3 Cl    0.011024 -0.004000 -0.000996
     4 H     0.001959  0.002772  0.002421
     5 H     0.003296  0.000977 -0.001194
     6 C    -0.000297 -0.005612  0.003004
     7 N     0.000318  0.000738 -0.001261
     8 C     0.002318 -0.001844 -0.002532
     9 H    -0.001193  0.000021  0.000059
    10 H    -0.001108 -0.000588  0.000993
    11 H    -0.001660  0.000924 -0.000578
 ----------------------------------------

 dE(predicted):    -0.16543E-02, dE(actual):    -0.13185E-02, Trust radius:    0.524450, all in a.u.
 
----------------------------------------------------------------------
Geometry Convergence after Step  21       (Hartree/Angstrom,Angstrom)
----------------------------------------------------------------------
current energy                               -2.21222891 Hartree
energy change                      -0.00131854     0.00011000    F
constrained gradient max            0.01099300     0.00010000    F
constrained gradient rms            0.00349324     0.00006667    F
gradient max                        0.01099261
gradient rms                        0.00349324
cart. step max                      0.06023650     0.01000000    F
cart. step rms                      0.01912873     0.00666667    F
 

--------
Geometry
--------
Formula: C4H5ClN
Atoms
  Index Symbol   x (angstrom)   y (angstrom)   z (angstrom)
      1      C    -0.69198002     0.09673562    -0.21672037
      2      C     0.45423015     0.01273592     0.68897718
      3     Cl     1.97853449    -0.28780921    -0.52639966
      4      H    -1.11468788    -0.81984914    -0.62134174
      5      H     0.47968657    -0.92933922     1.23916373
      6      C    -1.23833262     1.30625781    -0.61901258
      7      N    -1.72020239     2.32899010    -0.94542724
      8      C     0.77757418     1.21728343     1.55662236
      9      H     0.80124585     2.13784466     0.96507997
     10      H     0.00071985     1.32031563     2.32774942
     11      H     1.74488370     1.08488884     2.04827930

Total System Charge              0.00000

 *** GO1_GOStep22 ***

 Integrated fractional orbital density (NFOD):         1.000

 Energy gradients wrt nuclear displacements
 ==========================================

     Atom      Cartesian (a.u./angstrom)
                 X         Y         Z
 ----------------------------------------
     1 C     0.000191  0.000365 -0.007637
     2 C    -0.006831 -0.000346  0.003134
     3 Cl    0.002588 -0.000683 -0.002289
     4 H    -0.000659 -0.000724  0.001600
     5 H     0.001844 -0.000036  0.000908
     6 C     0.001520  0.000020  0.002404
     7 N    -0.000109 -0.000772  0.000012
     8 C     0.001470  0.001151  0.001746
     9 H    -0.000307  0.000283  0.000061
    10 H    -0.000048  0.000094  0.000665
    11 H     0.000341  0.000648 -0.000604
 ----------------------------------------

 dE(predicted):    -0.52513E-03, dE(actual):    -0.50331E-03, Trust radius:    0.524450, all in a.u.
 
----------------------------------------------------------------------
Geometry Convergence after Step  22       (Hartree/Angstrom,Angstrom)
----------------------------------------------------------------------
current energy                               -2.21273223 Hartree
energy change                      -0.00050331     0.00011000    F
constrained gradient max            0.00766809     0.00010000    F
constrained gradient rms            0.00214545     0.00006667    F
gradient max                        0.00766786
gradient rms                        0.00214545
cart. step max                      0.06129538     0.01000000    F
cart. step rms                      0.02209065     0.00666667    F
 

--------
Geometry
--------
Formula: C4H5ClN
Atoms
  Index Symbol   x (angstrom)   y (angstrom)   z (angstrom)
      1      C    -0.68965459     0.09787758    -0.21042884
      2      C     0.49272725     0.00881259     0.66272864
      3     Cl     1.97669604    -0.27955982    -0.50992694
      4      H    -1.12173473    -0.81838739    -0.60657519
      5      H     0.48479545    -0.92362582     1.23097296
      6      C    -1.24785439     1.30474232    -0.60153708
      7      N    -1.73852517     2.32795202    -0.91593620
      8      C     0.78106446     1.21467149     1.54347667
      9      H     0.85446030     2.13010751     0.94788767
     10      H    -0.03738868     1.33524711     2.26645404
     11      H     1.71708593     1.07021685     2.08985462

Total System Charge              0.00000

 *** GO1_GOStep23 ***

 Integrated fractional orbital density (NFOD):         1.000

 Energy gradients wrt nuclear displacements
 ==========================================

     Atom      Cartesian (a.u./angstrom)
                 X         Y         Z
 ----------------------------------------
     1 C     0.000809  0.000779 -0.001478
     2 C     0.006027 -0.002169 -0.005204
     3 Cl   -0.003945  0.000628  0.003562
     4 H    -0.000587 -0.000670  0.001445
     5 H    -0.000193  0.000915  0.000653
     6 C     0.000304  0.001191  0.000747
     7 N    -0.000086 -0.000726  0.000136
     8 C    -0.001783 -0.000231  0.000525
     9 H    -0.000063  0.000048 -0.000094
    10 H    -0.000346  0.000295  0.000306
    11 H    -0.000137 -0.000060 -0.000598
 ----------------------------------------

 dE(predicted):    -0.24706E-03, dE(actual):    -0.74434E-04, Trust radius:    0.524450, all in a.u.
 
----------------------------------------------------------------------
Geometry Convergence after Step  23       (Hartree/Angstrom,Angstrom)
----------------------------------------------------------------------
current energy                               -2.21280666 Hartree
energy change                      -0.00007443     0.00011000    T
constrained gradient max            0.00600725     0.00010000    F
constrained gradient rms            0.00183510     0.00006667    F
gradient max                        0.00600726
gradient rms                        0.00183510
cart. step max                      0.02022999     0.01000000    F
cart. step rms                      0.00850327     0.00666667    F
 

--------
Geometry
--------
Formula: C4H5ClN
Atoms
  Index Symbol   x (angstrom)   y (angstrom)   z (angstrom)
      1      C    -0.69759971     0.09631717    -0.20660840
      2      C     0.47249726     0.01222558     0.67594002
      3     Cl     1.98401456    -0.27041262    -0.52139154
      4      H    -1.10832161    -0.82124654    -0.61917294
      5      H     0.47352830    -0.92664161     1.23286715
      6      C    -1.25569231     1.30002096    -0.60578865
      7      N    -1.74023919     2.32384193    -0.92713219
      8      C     0.78425562     1.21654836     1.54880889
      9      H     0.85993131     2.13022482     0.95121348
     10      H    -0.02430009     1.34547313     2.28145557
     11      H     1.72359771     1.06170325     2.08677899

Total System Charge              0.00000

 *** GO1_GOStep24 ***

 Integrated fractional orbital density (NFOD):         1.000

 Energy gradients wrt nuclear displacements
 ==========================================

     Atom      Cartesian (a.u./angstrom)
                 X         Y         Z
 ----------------------------------------
     1 C    -0.002692  0.000665 -0.002336
     2 C    -0.000134 -0.002033  0.000054
     3 Cl    0.002551  0.000882 -0.001020
     4 H     0.000655  0.000339  0.001294
     5 H    -0.001795  0.000543  0.000691
     6 C     0.000719 -0.001911  0.001405
     7 N     0.000079  0.000226 -0.000230
     8 C     0.000408  0.001474  0.000176
     9 H    -0.000003  0.000139 -0.000050
    10 H     0.000158 -0.000151  0.000065
    11 H     0.000053 -0.000173 -0.000049
 ----------------------------------------

 dE(predicted):    -0.15458E-03, dE(actual):    -0.10267E-03, Trust radius:    0.524450, all in a.u.
 
----------------------------------------------------------------------
Geometry Convergence after Step  24       (Hartree/Angstrom,Angstrom)
----------------------------------------------------------------------
current energy                               -2.21290933 Hartree
energy change                      -0.00010267     0.00011000    T
constrained gradient max            0.00270675     0.00010000    F
constrained gradient rms            0.00110752     0.00006667    F
gradient max                        0.00270663
gradient rms                        0.00110752
cart. step max                      0.01306318     0.01000000    F
cart. step rms                      0.00513556     0.00666667    T
 

--------
Geometry
--------
Formula: C4H5ClN
Atoms
  Index Symbol   x (angstrom)   y (angstrom)   z (angstrom)
      1      C    -0.69436976     0.09797802    -0.20670772
      2      C     0.47193570     0.01305137     0.67850788
      3     Cl     1.97738332    -0.28176966    -0.52354842
      4      H    -1.11259377    -0.81786814    -0.61717967
      5      H     0.48594253    -0.92932761     1.22927089
      6      C    -1.25052983     1.30368808    -0.60912569
      7      N    -1.73789015     2.32503885    -0.93307031
      8      C     0.78196046     1.21642335     1.55137308
      9      H     0.84686813     2.13158918     0.95470847
     10      H    -0.02291110     1.33958332     2.28912282
     11      H     1.72587634     1.06966766     2.08361904

Total System Charge              0.00000

 *** GO1_GOStep25 ***

 Integrated fractional orbital density (NFOD):         1.000

 Energy gradients wrt nuclear displacements
 ==========================================

     Atom      Cartesian (a.u./angstrom)
                 X         Y         Z
 ----------------------------------------
     1 C     0.000420 -0.000584 -0.002061
     2 C    -0.001126  0.000391  0.000589
     3 Cl    0.000492 -0.000527 -0.000058
     4 H    -0.000295 -0.000026  0.000967
     5 H     0.000866 -0.000377 -0.000245
     6 C    -0.000069  0.000560  0.000377
     7 N    -0.000043 -0.000294  0.000001
     8 C    -0.000458  0.000546  0.000270
     9 H    -0.000094  0.000008 -0.000007
    10 H     0.000183  0.000078  0.000165
    11 H     0.000123  0.000226  0.000004
 ----------------------------------------

 dE(predicted):    -0.32519E-04, dE(actual):    -0.13554E-04, Trust radius:    0.524450, all in a.u.
 
----------------------------------------------------------------------
Geometry Convergence after Step  25       (Hartree/Angstrom,Angstrom)
----------------------------------------------------------------------
current energy                               -2.21292288 Hartree
energy change                      -0.00001355     0.00011000    T
constrained gradient max            0.00208878     0.00010000    F
constrained gradient rms            0.00055599     0.00006667    F
gradient max                        0.00208875
gradient rms                        0.00055599
cart. step max                      0.01058018     0.01000000    F
cart. step rms                      0.00336333     0.00666667    T
 

--------
Geometry
--------
Formula: C4H5ClN
Atoms
  Index Symbol   x (angstrom)   y (angstrom)   z (angstrom)
      1      C    -0.69587880     0.09742983    -0.20470268
      2      C     0.47414589     0.01277609     0.67706342
      3     Cl     1.97584755    -0.27600129    -0.52432248
      4      H    -1.11001967    -0.81883043    -0.61822879
      5      H     0.48396318    -0.92817230     1.23046317
      6      C    -1.25295020     1.30205676    -0.60744373
      7      N    -1.74036432     2.32379676    -0.93047257
      8      C     0.78331899     1.21608370     1.55047046
      9      H     0.85744831     2.12977150     0.95263408
     10      H    -0.02644078     1.34437735     2.28183343
     11      H     1.72260171     1.06476645     2.08967606

Total System Charge              0.00000

 *** GO1_GOStep26 ***

 Integrated fractional orbital density (NFOD):         1.000

 Energy gradients wrt nuclear displacements
 ==========================================

     Atom      Cartesian (a.u./angstrom)
                 X         Y         Z
 ----------------------------------------
     1 C    -0.000273 -0.000184 -0.001270
     2 C    -0.000036 -0.000219  0.000019
     3 Cl    0.000353  0.000048  0.000033
     4 H     0.000010  0.000040  0.000829
     5 H     0.000073 -0.000038  0.000063
     6 C     0.000077 -0.000020  0.000219
     7 N    -0.000022 -0.000159  0.000007
     8 C    -0.000377  0.000449  0.000136
     9 H    -0.000035 -0.000010 -0.000085
    10 H     0.000136  0.000038  0.000037
    11 H     0.000094  0.000055  0.000012
 ----------------------------------------

 dE(predicted):    -0.10237E-04, dE(actual):    -0.19344E-04, Trust radius:    0.524450, all in a.u.
 
----------------------------------------------------------------------
Geometry Convergence after Step  26       (Hartree/Angstrom,Angstrom)
----------------------------------------------------------------------
current energy                               -2.21294223 Hartree
energy change                      -0.00001934     0.00011000    T
constrained gradient max            0.00129786     0.00010000    F
constrained gradient rms            0.00030082     0.00006667    F
gradient max                        0.00129790
gradient rms                        0.00030082
cart. step max                      0.00493546     0.01000000    T
cart. step rms                      0.00161906     0.00666667    T
 

--------
Geometry
--------
Formula: C4H5ClN
Atoms
  Index Symbol   x (angstrom)   y (angstrom)   z (angstrom)
      1      C    -0.69671602     0.09743102    -0.20284236
      2      C     0.47428812     0.01290540     0.67748113
      3     Cl     1.97399114    -0.27439785    -0.52571707
      4      H    -1.10782181    -0.81861856    -0.62017229
      5      H     0.48418960    -0.92800824     1.23089472
      6      C    -1.25416066     1.30151146    -0.60690106
      7      N    -1.74225545     2.32276209    -0.93050332
      8      C     0.78413401     1.21585965     1.55057929
      9      H     0.86238376     2.12880628     0.95212436
     10      H    -0.02767732     1.34710212     2.27915395
     11      H     1.72131648     1.06270106     2.09287300

Total System Charge              0.00000

 *** GO1_GOStep27 ***

 Integrated fractional orbital density (NFOD):         1.000

 Energy gradients wrt nuclear displacements
 ==========================================

     Atom      Cartesian (a.u./angstrom)
                 X         Y         Z
 ----------------------------------------
     1 C    -0.000231 -0.000107 -0.000456
     2 C     0.000104 -0.000163 -0.000030
     3 Cl    0.000223  0.000179  0.000046
     4 H     0.000060  0.000015  0.000558
     5 H    -0.000046  0.000047  0.000070
     6 C     0.000060 -0.000115 -0.000061
     7 N    -0.000046 -0.000101  0.000014
     8 C    -0.000251  0.000158 -0.000044
     9 H    -0.000019 -0.000012 -0.000094
    10 H     0.000082  0.000045 -0.000036
    11 H     0.000064  0.000054  0.000033
 ----------------------------------------

 dE(predicted):    -0.24791E-05, dE(actual):    -0.62635E-05, Trust radius:    0.524450, all in a.u.
 
----------------------------------------------------------------------
Geometry Convergence after Step  27       (Hartree/Angstrom,Angstrom)
----------------------------------------------------------------------
current energy                               -2.21294849 Hartree
energy change                      -0.00000626     0.00011000    T
constrained gradient max            0.00048662     0.00010000    F
constrained gradient rms            0.00015318     0.00006667    F
gradient max                        0.00048668
gradient rms                        0.00015318
cart. step max                      0.00246517     0.01000000    T
cart. step rms                      0.00094655     0.00666667    T
 

--------
Geometry
--------
Formula: C4H5ClN
Atoms
  Index Symbol   x (angstrom)   y (angstrom)   z (angstrom)
      1      C    -0.69706951     0.09763075    -0.20158375
      2      C     0.47379872     0.01303372     0.67839504
      3     Cl     1.97234715    -0.27468377    -0.52666759
      4      H    -1.10575684    -0.81802106    -0.62263746
      5      H     0.48453317    -0.92804778     1.23144817
      6      C    -1.25483688     1.30141711    -0.60665933
      7      N    -1.74374138     2.32199785    -0.93111381
      8      C     0.78465757     1.21575925     1.55091560
      9      H     0.86428026     2.12840974     0.95214394
     10      H    -0.02772459     1.34851243     2.27867198
     11      H     1.72118419     1.06204619     2.09405760

Total System Charge              0.00000

 *** GO1_GOStep28 ***

 Integrated fractional orbital density (NFOD):         1.000

 Energy gradients wrt nuclear displacements
 ==========================================

     Atom      Cartesian (a.u./angstrom)
                 X         Y         Z
 ----------------------------------------
     1 C     0.000038 -0.000070  0.000197
     2 C    -0.000024 -0.000022  0.000050
     3 Cl    0.000108  0.000177  0.000031
     4 H     0.000015 -0.000065  0.000276
     5 H     0.000019  0.000061  0.000026
     6 C    -0.000010 -0.000071 -0.000290
     7 N    -0.000070 -0.000082  0.000007
     8 C    -0.000084 -0.000112 -0.000169
     9 H    -0.000019  0.000016 -0.000080
    10 H     0.000010  0.000072 -0.000059
    11 H     0.000016  0.000098  0.000011
 ----------------------------------------

 dE(predicted):    -0.11653E-05, dE(actual):    -0.25294E-05, Trust radius:    0.524450, all in a.u.
 
----------------------------------------------------------------------
Geometry Convergence after Step  28       (Hartree/Angstrom,Angstrom)
----------------------------------------------------------------------
current energy                               -2.21295102 Hartree
energy change                      -0.00000253     0.00011000    T
constrained gradient max            0.00027414     0.00010000    F
constrained gradient rms            0.00008793     0.00006667    F
gradient max                        0.00027421
gradient rms                        0.00008793
cart. step max                      0.00182151     0.01000000    T
cart. step rms                      0.00053237     0.00666667    T
 

--------
Geometry
--------
Formula: C4H5ClN
Atoms
  Index Symbol   x (angstrom)   y (angstrom)   z (angstrom)
      1      C    -0.69696786     0.09779931    -0.20141346
      2      C     0.47348272     0.01302234     0.67887450
      3     Cl     1.97185182    -0.27590552    -0.52650083
      4      H    -1.10456041    -0.81754649    -0.62445897
      5      H     0.48432174    -0.92802163     1.23198230
      6      C    -1.25506017     1.30157004    -0.60636739
      7      N    -1.74452695     2.32177646    -0.93113298
      8      C     0.78481730     1.21582167     1.55101588
      9      H     0.86396638     2.12848385     0.95216018
     10      H    -0.02727414     1.34866861     2.27914769
     11      H     1.72162143     1.06238578     2.09366344

Total System Charge              0.00000

 *** GO1_GOStep29 ***

 Integrated fractional orbital density (NFOD):         1.000

 Energy gradients wrt nuclear displacements
 ==========================================

     Atom      Cartesian (a.u./angstrom)
                 X         Y         Z
 ----------------------------------------
     1 C     0.000186 -0.000064  0.000412
     2 C    -0.000106  0.000021  0.000076
     3 Cl    0.000066  0.000139  0.000023
     4 H    -0.000031 -0.000118  0.000142
     5 H     0.000074  0.000055  0.000008
     6 C    -0.000044 -0.000016 -0.000329
     7 N    -0.000084 -0.000089 -0.000018
     8 C     0.000010 -0.000189 -0.000176
     9 H    -0.000028  0.000044 -0.000068
    10 H    -0.000032  0.000089 -0.000048
    11 H    -0.000010  0.000127 -0.000024
 ----------------------------------------
 
----------------------------------------------------------------------
Geometry Convergence after Step  29       (Hartree/Angstrom,Angstrom)
----------------------------------------------------------------------
current energy                               -2.21295142 Hartree
energy change                      -0.00000040     0.00011000    T
constrained gradient max            0.00037783     0.00010000    F
constrained gradient rms            0.00011297     0.00006667    F
gradient max                        0.00037781
gradient rms                        0.00011297
cart. step max                      0.00353603     0.01000000    T
cart. step rms                      0.00111884     0.00666667    T
 

--------
Geometry
--------
Formula: C4H5ClN
Atoms
  Index Symbol   x (angstrom)   y (angstrom)   z (angstrom)
      1      C    -0.69649128     0.09806836    -0.20179138
      2      C     0.47313506     0.01289416     0.67942546
      3     Cl     1.97161649    -0.27877663    -0.52535158
      4      H    -1.10230278    -0.81675172    -0.62799500
      5      H     0.48330920    -0.92782007     1.23314958
      6      C    -1.25554572     1.30190907    -0.60543904
      7      N    -1.74607595     2.32162363    -0.93014207
      8      C     0.78499687     1.21608608     1.55091055
      9      H     0.86298285     2.12873640     0.95182961
     10      H    -0.02641799     1.34878474     2.27990023
     11      H     1.72246513     1.06330040     2.09247400

Total System Charge              0.00000

 *** GO1_GOStep30 ***

 Integrated fractional orbital density (NFOD):         1.000

 Energy gradients wrt nuclear displacements
 ==========================================

     Atom      Cartesian (a.u./angstrom)
                 X         Y         Z
 ----------------------------------------
     1 C     0.000333 -0.000067  0.000563
     2 C    -0.000157  0.000012  0.000067
     3 Cl    0.000024  0.000079  0.000014
     4 H    -0.000090 -0.000185 -0.000015
     5 H     0.000121  0.000044  0.000012
     6 C    -0.000096  0.000077 -0.000282
     7 N    -0.000091 -0.000118 -0.000078
     8 C     0.000116 -0.000192 -0.000125
     9 H    -0.000047  0.000086 -0.000055
    10 H    -0.000077  0.000108 -0.000022
    11 H    -0.000036  0.000156 -0.000080
 ----------------------------------------
 
----------------------------------------------------------------------
Geometry Convergence after Step  30       (Hartree/Angstrom,Angstrom)
----------------------------------------------------------------------
current energy                               -2.21295162 Hartree
energy change                      -0.00000020     0.00011000    T
constrained gradient max            0.00052707     0.00010000    F
constrained gradient rms            0.00014295     0.00006667    F
gradient max                        0.00052710
gradient rms                        0.00014295
cart. step max                      0.00364419     0.01000000    T
cart. step rms                      0.00126733     0.00666667    T
 

--------
Geometry
--------
Formula: C4H5ClN
Atoms
  Index Symbol   x (angstrom)   y (angstrom)   z (angstrom)
      1      C    -0.69580662     0.09824229    -0.20273897
      2      C     0.47306398     0.01270486     0.67961156
      3     Cl     1.97195693    -0.28193409    -0.52358396
      4      H    -1.09986760    -0.81613485    -0.63163918
      5      H     0.48184328    -0.92746789     1.23437101
      6      C    -1.25626784     1.30218364    -0.60403787
      7      N    -1.74792851     2.32165701    -0.92782386
      8      C     0.78511843     1.21648619     1.55047048
      9      H     0.86257065     2.12890465     0.95094784
     10      H    -0.02592972     1.34929032     2.27985476
     11      H     1.72291890     1.06412230     2.09153856

Total System Charge              0.00000

 *** GO1_GOStep31 ***

 Integrated fractional orbital density (NFOD):         1.000

 Energy gradients wrt nuclear displacements
 ==========================================

     Atom      Cartesian (a.u./angstrom)
                 X         Y         Z
 ----------------------------------------
     1 C     0.000328 -0.000084  0.000495
     2 C    -0.000100 -0.000051  0.000019
     3 Cl    0.000006  0.000037  0.000014
     4 H    -0.000101 -0.000203 -0.000077
     5 H     0.000111  0.000039  0.000045
     6 C    -0.000126  0.000132 -0.000147
     7 N    -0.000083 -0.000156 -0.000139
     8 C     0.000139 -0.000083 -0.000039
     9 H    -0.000061  0.000101 -0.000056
    10 H    -0.000078  0.000108 -0.000006
    11 H    -0.000036  0.000160 -0.000108
 ----------------------------------------
 
----------------------------------------------------------------------
Geometry Convergence after Step  31       (Hartree/Angstrom,Angstrom)
----------------------------------------------------------------------
current energy                               -2.21295181 Hartree
energy change                      -0.00000019     0.00011000    T
constrained gradient max            0.00045679     0.00010000    F
constrained gradient rms            0.00012819     0.00006667    F
gradient max                        0.00045685
gradient rms                        0.00012819
cart. step max                      0.00371799     0.01000000    T
cart. step rms                      0.00144596     0.00666667    T
 

--------
Geometry
--------
Formula: C4H5ClN
Atoms
  Index Symbol   x (angstrom)   y (angstrom)   z (angstrom)
      1      C    -0.69500699     0.09826808    -0.20407907
      2      C     0.47323090     0.01251382     0.67945970
      3     Cl     1.97275337    -0.28495489    -0.52157013
[...]
                                    6.59%     1 S              -6.532  1.00     9 H
                                    6.45%     1 P:z            -5.239  0.67     2 C
                                    6.15%     2 S               2.394  0.00     9 H
                                    5.61%     1 S              -6.532  1.00     7 H
                                    4.52%     1 S              -6.532  1.00     6 H
                                    4.30%     2 P:y             4.589  0.00     3 C
                                   -4.30%     2 P:x             4.589  0.00     1 C
                                   -2.23%     3 S              10.158  0.00     2 C
                                   -2.14%     4 S               5.292  0.00     5 Cl
                                    1.91%     2 P:z             4.589  0.00     2 C
                                    1.73%     3 S              40.869  0.00     8 H
                                    1.49%     2 P:y             4.589  0.00     1 C
                                   -1.49%     3 S              14.073  0.00    11 N
                                   -1.39%     2 S               2.394  0.00     6 H
                                    1.29%     1 P:z            -5.239  0.67     3 C
                                    1.21%     3 S              40.869  0.00     9 H
                                    1.08%     3 S              40.869  0.00     7 H
                                    1.04%     3 S              40.869  0.00    10 H
                                    1.02%     2 S             -13.620  2.00     2 C
                                    1.01%     1 P:z            -5.239  0.67     1 C
       2.231  0.00    36 A         25.20%     1 P:z            -5.239  0.67     4 C
                                   24.55%     2 P:y             4.589  0.00     1 C
                                  -16.81%     2 P:y             4.589  0.00     2 C
                                   12.18%     1 P:y            -5.239  0.67     2 C
                                   11.79%     2 P:y             4.589  0.00     4 C
                                   10.81%     1 S              -6.532  1.00    10 H
                                    9.12%     1 S              -6.532  1.00     8 H
                                   -9.07%     2 S               2.394  0.00    10 H
                                   -7.30%     3 S              14.073  0.00    11 N
                                    7.01%     1 P:y            -5.239  0.67     4 C
                                    6.76%     2 P:y             4.589  0.00     3 C
                                    5.64%     1 P:z            -5.239  0.67     2 C
                                    4.67%     1 P:x            -5.239  0.67     4 C
                                    3.63%     2 P:x             4.589  0.00     3 C
                                    3.36%     1 P:y            -5.239  0.67     3 C
                                   -3.33%     3 S              10.158  0.00     4 C
                                    3.13%     1 S              -6.532  1.00     6 H
                                    2.82%     2 S             -13.620  2.00     4 C
                                    2.63%     2 S               2.394  0.00     8 H
                                   -2.21%     2 S               2.394  0.00     9 H
                                   -1.95%     3 S              10.158  0.00     2 C
                                    1.93%     1 S              -6.532  1.00     7 H
                                   -1.93%     2 S             -13.620  2.00     3 C
                                    1.84%     2 P:x             4.589  0.00     1 C
                                    1.79%     2 S             -13.620  2.00     2 C
                                    1.69%     2 P:z             4.589  0.00     4 C
                                   -1.56%     1 P:y            -5.239  0.67     1 C
                                   -1.49%     3 S              10.158  0.00     3 C
                                    1.34%     1 P:x            -5.239  0.67     1 C
                                    1.27%     3 S              10.158  0.00     1 C
                                    1.18%     1 P:z            -5.239  0.67     3 C
       2.841  0.00    37 A         18.46%     2 P:x             4.589  0.00     1 C
                                   15.79%     1 P:z            -5.239  0.67     4 C
                                   14.47%     1 P:y            -5.239  0.67     2 C
                                   12.34%     1 S              -6.532  1.00     9 H
                                  -10.68%     2 S               2.394  0.00     7 H
                                    8.97%     1 P:y            -5.239  0.67     3 C
                                    8.18%     2 P:y             4.589  0.00     1 C
                                    7.91%     1 S              -6.532  1.00     7 H
                                   -7.33%     2 S               2.394  0.00     9 H
                                    6.80%     2 P:z             4.589  0.00     4 C
                                   -6.79%     3 S              14.073  0.00    11 N
                                    6.45%     1 P:x            -5.239  0.67     1 C
                                    5.97%     2 P:x             4.589  0.00     3 C
                                    4.71%     2 P:x             4.589  0.00     4 C
                                    4.41%     1 P:y            -5.239  0.67     4 C
                                    4.26%     2 P:y             4.589  0.00     3 C
                                   -4.23%     4 S               5.292  0.00     5 Cl
                                   -4.18%     3 S              10.158  0.00     2 C
                                    4.14%     2 S               2.394  0.00     6 H
                                    3.74%     2 P:x             4.589  0.00     2 C
                                   -3.43%     3 S              10.158  0.00     3 C
                                    3.19%     1 P:x            -5.239  0.67     4 C
                                   -2.95%     2 P:y             4.589  0.00     2 C
                                   -2.37%     2 P:z             4.589  0.00     1 C
                                    2.29%     3 P:x             6.147  0.00     5 Cl
                                    2.00%     1 P:z            -5.239  0.67     1 C
                                   -1.93%     2 P:y             4.589  0.00     4 C
                                    1.86%     1 P:y            -5.239  0.67     1 C
                                   -1.59%     2 S             -13.620  2.00     3 C
                                    1.55%     2 S             -13.620  2.00     2 C
                                   -1.47%     3 S              40.869  0.00     9 H
                                    1.36%     3 P:z             6.147  0.00     5 Cl
                                    1.29%     2 P:z             4.589  0.00     3 C
                                    1.28%     1 D:xy           10.568  0.00     5 Cl
                                   -1.28%     3 P:y            54.789  0.00     3 C
                                    1.19%     2 S               2.394  0.00     8 H
       3.592  0.00    38 A         24.47%     2 P:y             4.589  0.00     4 C
                                   10.53%     2 S             -13.620  2.00     3 C
                                    8.70%     2 S             -13.620  2.00     1 C
                                    8.50%     2 P:z             4.589  0.00     3 C
                                    7.21%     2 P:x             4.589  0.00     2 C
                                    6.87%     1 P:x            -5.239  0.67     2 C
                                    6.45%     1 P:y            -5.239  0.67     1 C
                                   -6.09%     3 S              10.158  0.00     3 C
                                    5.78%     2 S               2.394  0.00     6 H
                                    4.18%     2 P:y             4.589  0.00     3 C
                                    3.99%     1 P:y            -5.239  0.67     4 C
                                   -3.71%     3 S              10.158  0.00     1 C
                                    2.87%     1 P:z            -5.239  0.67     2 C
                                    2.69%     2 P:y             4.589  0.00     1 C
                                    2.49%     3 P:z             6.147  0.00     5 Cl
                                    2.25%     2 P:z             4.589  0.00     1 C
                                    2.05%     1 S              -6.532  1.00     8 H
                                    1.74%     2 S               2.394  0.00     8 H
                                   -1.71%     3 S              14.073  0.00    11 N
                                    1.67%     1 S              -6.532  1.00     7 H
                                    1.60%     1 P:y            11.051  0.00     7 H
                                   -1.58%     2 S               2.394  0.00     9 H
                                    1.50%     1 S              -6.532  1.00    10 H
                                    1.50%     2 P:y             7.649  0.00    11 N
                                    1.45%     1 S              -6.532  1.00     9 H
                                   -1.45%     3 S              40.869  0.00     8 H
                                    1.38%     1 D:z2           10.568  0.00     5 Cl
                                   -1.34%     2 P:z             4.589  0.00     2 C
                                    1.33%     2 S             -13.620  2.00     4 C
                                   -1.21%     2 S               2.394  0.00     7 H
                                   -1.21%     3 S              10.158  0.00     4 C
                                   -1.04%     3 S              10.158  0.00     2 C

 Energy gradients wrt nuclear displacements
 ==========================================

     Atom      Cartesian (a.u./angstrom)
                 X         Y         Z
 ----------------------------------------
     1 C    -0.000016 -0.000067 -0.000014
     2 C     0.000025  0.000028  0.000048
     3 Cl    0.000018  0.000008  0.000033
     4 H     0.000053 -0.000086  0.000109
     5 H     0.000062  0.000049  0.000076
     6 C    -0.000022 -0.000113  0.000025
     7 N    -0.000063 -0.000138 -0.000086
     8 C    -0.000023  0.000071 -0.000048
     9 H    -0.000038  0.000037 -0.000083
    10 H    -0.000000  0.000083 -0.000035
    11 H     0.000005  0.000130 -0.000024
 ----------------------------------------



 =======================================================================
 Electrostatic potential at the Nuclei due to electrons and other nuclei
 =======================================================================
  
         Atom                  Potential
         ----                  ---------
     1)   C                  14.71358605
     2)   C                  14.69004390
     3)   Cl                 64.86296241
     4)   H                   1.04700490
     5)   H                   1.06504799
     6)   C                  14.74398358
     7)   N                  18.41481551
     8)   C                  14.76355736
     9)   H                   1.09143642
    10)   H                   1.08448856
    11)   H                   1.09076054
 Mulliken charges used for AMS results%charges...


    =====================
     CALCULATION RESULTS
    =====================

Energy (hartree)            -2.21295466

Gradients (hartree/bohr)
  Index   Atom            d/dx            d/dy            d/dz
      1      C   -0.0000085156   -0.0000353587   -0.0000074571
      2      C    0.0000134725    0.0000147438    0.0000253925
      3     Cl    0.0000095165    0.0000040053    0.0000174773
      4      H    0.0000279168   -0.0000453742    0.0000575269
      5      H    0.0000326909    0.0000257591    0.0000403518
      6      C   -0.0000118363   -0.0000600433    0.0000132671
      7      N   -0.0000333670   -0.0000728140   -0.0000457352
      8      C   -0.0000121917    0.0000373279   -0.0000255897
      9      H   -0.0000201798    0.0000195094   -0.0000438047
     10      H   -0.0000001332    0.0000436633   -0.0000187698
     11      H    0.0000026268    0.0000685814   -0.0000126592


--------------
Atomic charges
--------------
  Index   Atom    Charge
      1      C    0.1956
      2      C    0.2221
      3     Cl   -0.1803
      4      H   -0.1260
      5      H   -0.1135
      6      C    0.1190
      7      N   -0.2387
      8      C    0.6716
      9      H   -0.1620
     10      H   -0.1921
     11      H   -0.1956


Dipole moment vector    (Debye):     0.23803931   -2.28133726    2.50968434
              magnitude (Debye):     3.39995263


-----------------------
Molecular orbitals info
-----------------------
n orbitals:              219
n spin:                    1

Note: only printing virtual orbitals with
      energy smaller than HOMO + 100. eV

Note: fractional orbital occupations. HOMO and LUMO labels are not well defined!

HOMO (eV):              -7.4116
LUMO (eV):              -5.5717
HOMO-LUMO gap (eV):      1.8399

   Index   Energy (eV)    Occupation
     146       91.7126         0.000       
     145       91.1393         0.000       
     144       89.8131         0.000       
     143       87.7734         0.000       
     142       85.9799         0.000       
     141       83.6425         0.000       
     140       83.1642         0.000       
     139       82.3290         0.000       
     138       80.8203         0.000       
     137       80.0303         0.000       
     136       79.1660         0.000       
     135       77.9661         0.000       
     134       77.0592         0.000       
     133       76.7197         0.000       
     132       75.5237         0.000       
     131       75.3523         0.000       
     130       74.4528         0.000       
     129       73.0548         0.000       
     128       72.6922         0.000       
     127       68.2610         0.000       
     126       67.7860         0.000       
     125       66.2598         0.000       
     124       65.8361         0.000       
     123       65.2402         0.000       
     122       64.5716         0.000       
     121       63.2169         0.000       
     120       62.7837         0.000       
     119       61.1822         0.000       
     118       59.8918         0.000       
     117       59.8194         0.000       
     116       58.1963         0.000       
     115       57.2237         0.000       
     114       56.8821         0.000       
     113       55.9843         0.000       
     112       55.1128         0.000       
     111       54.5422         0.000       
     110       52.1399         0.000       
     109       50.7828         0.000       
     108       49.7824         0.000       
     107       48.6842         0.000       
     106       46.9106         0.000       
     105       46.5152         0.000       
     104       45.7098         0.000       
     103       45.4034         0.000       
     102       43.8440         0.000       
     101       42.4853         0.000       
     100       41.6899         0.000       
      99       40.5693         0.000       
      98       39.0812         0.000       
      97       38.5385         0.000       
      96       36.9019         0.000       
      95       36.3732         0.000       
      94       36.0145         0.000       
      93       35.9527         0.000       
      92       34.9154         0.000       
      91       34.5758         0.000       
      90       33.9207         0.000       
      89       33.6210         0.000       
      88       33.0061         0.000       
      87       32.7948         0.000       
      86       32.2709         0.000       
      85       31.4640         0.000       
      84       31.3804         0.000       
      83       30.6930         0.000       
      82       30.1741         0.000       
      81       28.9696         0.000       
      80       28.4880         0.000       
      79       27.9924         0.000       
      78       27.5659         0.000       
      77       26.4691         0.000       
      76       26.4229         0.000       
      75       25.3371         0.000       
      74       24.5513         0.000       
      73       23.5253         0.000       
      72       22.4258         0.000       
      71       21.9462         0.000       
      70       21.0106         0.000       
      69       19.9177         0.000       
      68       19.0349         0.000       
      67       17.3424         0.000       
      66       16.6272         0.000       
      65       16.0772         0.000       
      64       14.9651         0.000       
      63       13.6872         0.000       
      62       13.3210         0.000       
      61       13.0338         0.000       
      60       11.9327         0.000       
      59       11.6098         0.000       
      58       11.1899         0.000       
      57       10.6995         0.000       
      56       10.5233         0.000       
      55       10.0009         0.000       
      54        9.6733         0.000       
      53        9.3057         0.000       
      52        9.0747         0.000       
      51        8.6311         0.000       
      50        8.3728         0.000       
      49        7.9614         0.000       
      48        7.5066         0.000       
      47        7.1650         0.000       
      46        6.6802         0.000       
      45        6.2536         0.000       
      44        5.8428         0.000       
      43        5.3908         0.000       
      42        4.9477         0.000       
      41        4.5223         0.000       
      40        4.4132         0.000       
      39        3.8658         0.000       
      38        3.5924         0.000       
      37        2.8411         0.000       
      36        2.2307         0.000       
      35        1.6055         0.000       
      34        1.2737         0.000       
      33        0.8890         0.000       
      32        0.5261         0.000       
      31        0.3030         0.000       
      30       -0.3226         0.000       
      29       -1.1035         0.000       
      28       -1.7360         0.000       
      27       -5.5717         1.000 < LUMO
      26       -7.4116         2.000 < HOMO
      25       -7.5476         2.000       
      24       -8.4962         2.000       
      23       -9.0700         2.000       
      22       -9.1395         2.000       
      21       -9.7098         2.000       
      20       -9.8510         2.000       
      19      -10.3325         2.000       
      18      -11.5344         2.000       
      17      -12.4923         2.000       
      16      -13.1028         2.000       
      15      -15.9236         2.000       
      14      -18.4018         2.000       
      13      -19.6407         2.000       
      12      -21.7067         2.000       
      11      -22.9466         2.000       
      10     -190.2488         2.000       
       9     -190.2718         2.000       
       8     -190.5382         2.000       
       7     -251.2973         2.000       
       6     -270.6093         2.000       
       5     -271.5656         2.000       
       4     -272.0493         2.000       
       3     -272.6471         2.000       
       2     -382.1835         2.000       
       1    -2750.5730         2.000       

AMS application finished. Exiting.
NORMAL TERMINATION
     Total cpu time:     841.29
  Total system time:       4.90
 Total elapsed time:     849.22
NORMAL TERMINATION with warnings
