14
Coordinates from ORCA-job ts_scan Relaxed Surface Scan Step 1 E -63.714440070704
  C       1.446625      1.224825     -0.126722
  C       1.485166     -0.051815      0.198355
  Cl      2.134534     -0.576889      1.741382
  O       0.989351     -1.041547     -0.547574
  C      -0.358643     -1.423538     -0.187992
  C      -1.296218     -0.325902     -0.549812
  C      -1.486834      0.716391      0.242479
  H       1.019177      1.511194     -1.074157
  H       1.880560      1.975805      0.513751
  H      -0.384876     -1.646404      0.878814
  H      -0.545455     -2.336882     -0.743483
  H      -1.717480     -0.337307     -1.548215
  H      -2.095186      1.556560     -0.067198
  H      -1.070722      0.755511      1.240502
>
14
Coordinates from ORCA-job ts_scan Relaxed Surface Scan Step 2 E -63.712570370513
  C       1.397728      1.220304     -0.118673
  C       1.476145     -0.056176      0.201206
  Cl      2.138553     -0.567085      1.742885
  O       0.993542     -1.054718     -0.540670
  C      -0.360714     -1.433340     -0.190241
  C      -1.285883     -0.325722     -0.549036
  C      -1.438407      0.729331      0.235282
  H       0.967761      1.498263     -1.066940
  H       1.813078      1.980968      0.523033
  H      -0.391101     -1.663258      0.874948
  H      -0.548070     -2.341607     -0.753484
  H      -1.714992     -0.333316     -1.543983
  H      -2.028196      1.582261     -0.075931
  H      -1.019443      0.764096      1.231735
>
14
Coordinates from ORCA-job ts_scan Relaxed Surface Scan Step 3 E -63.710193326315
  C       1.348984      1.215604     -0.114957
  C       1.465877     -0.058985      0.202798
  Cl      2.132808     -0.551145      1.748385
  O       0.997761     -1.067261     -0.533609
  C      -0.363353     -1.443591     -0.192725
  C      -1.275032     -0.325114     -0.546460
  C      -1.388404      0.739917      0.232073
  H       0.922942      1.483649     -1.067314
  H       1.743868      1.986571      0.527667
  H      -0.397459     -1.682765      0.870243
  H      -0.551041     -2.345460     -0.765696
  H      -1.708421     -0.324482     -1.539472
  H      -1.956708      1.607165     -0.080051
  H      -0.971821      0.765899      1.229250
>
14
Coordinates from ORCA-job ts_scan Relaxed Surface Scan Step 4 E -63.707221894127
  C       1.300354      1.210841     -0.115666
  C       1.454685     -0.060358      0.203024
  Cl      2.117246     -0.529762      1.757422
  O       1.001936     -1.078811     -0.526569
  C      -0.366859     -1.454027     -0.195395
  C      -1.264073     -0.324295     -0.542202
  C      -1.336743      0.747990      0.232882
  H       0.885235      1.467602     -1.075415
  H       1.672862      1.992757      0.527403
  H      -0.403805     -1.703946      0.864879
  H      -0.554066     -2.348545     -0.779554
  H      -1.697743     -0.311089     -1.534892
  H      -1.880500      1.631072     -0.079056
  H      -0.928531      0.760572      1.233272
>
14
Coordinates from ORCA-job ts_scan Relaxed Surface Scan Step 5 E -63.703598212080
  C       1.251529      1.205968     -0.119471
  C       1.443588     -0.060785      0.201541
  Cl      2.095019     -0.505475      1.767796
  O       1.006046     -1.088928     -0.520567
  C      -0.371200     -1.464125     -0.197836
  C      -1.253446     -0.323466     -0.536603
  C      -1.284007      0.754000      0.236593
  H       0.853665      1.451120     -1.089054
  H       1.600550      1.998868      0.523659
  H      -0.409388     -1.724820      0.859610
  H      -0.557711     -2.351177     -0.793093
  H      -1.682886     -0.294448     -1.530686
  H      -1.800692      1.653618     -0.074539
  H      -0.891068      0.749650      1.242784
>
14
Coordinates from ORCA-job ts_scan Relaxed Surface Scan Step 6 E -63.699271857831
  C       1.202842      1.201278     -0.125552
  C       1.432831     -0.060489      0.198527
  Cl      2.066938     -0.478033      1.779777
  O       1.010473     -1.097433     -0.514454
  C      -0.377712     -1.473981     -0.200141
  C      -1.244157     -0.323285     -0.529647
  C      -1.229932      0.758178      0.242241
  H       0.828803      1.435444     -1.106958
  H       1.528287      2.004766      0.517136
  H      -0.414432     -1.746334      0.854100
  H      -0.560965     -2.352805     -0.807980
  H      -1.667132     -0.276515     -1.525707
  H      -1.718598      1.674081     -0.066927
  H      -0.857246      0.735128      1.255717
>
14
Coordinates from ORCA-job ts_scan Relaxed Surface Scan Step 7 E -63.694264322344
  C       1.154029      1.196731     -0.132469
  C       1.423458     -0.060013      0.193645
  Cl      2.035211     -0.450495      1.791352
  O       1.015692     -1.103593     -0.510211
  C      -0.386208     -1.482957     -0.202028
  C      -1.236320     -0.323769     -0.521978
  C      -1.175101      0.761027      0.248733
  H       0.810430      1.421373     -1.127045
  H       1.457016      2.009815      0.509487
  H      -0.417548     -1.765615      0.849233
  H      -0.564933     -2.354164     -0.821487
  H      -1.650141     -0.258434     -1.520723
  H      -1.636840      1.691841     -0.057397
  H      -0.828746      0.718253      1.271019
>
14
Coordinates from ORCA-job ts_scan Relaxed Surface Scan Step 8 E -63.688719036371
  C       1.104956      1.191926     -0.138878
  C       1.416968     -0.060197      0.187126
  Cl      2.004396     -0.424189      1.801412
  O       1.023280     -1.107536     -0.507557
  C      -0.397770     -1.490745     -0.203402
  C      -1.229975     -0.324892     -0.514209
  C      -1.120199      0.763497      0.254992
  H       0.797884      1.409236     -1.147145
  H       1.388524      2.013349      0.501743
  H      -0.418707     -1.781810      0.845215
  H      -0.569948     -2.355040     -0.833601
  H      -1.632917     -0.241368     -1.515947
  H      -1.559622      1.706396     -0.046990
  H      -0.806869      0.701372      1.287373
>
14
Coordinates from ORCA-job ts_scan Relaxed Surface Scan Step 9 E -63.682979692703
  C       1.055709      1.187432     -0.145066
  C       1.414071     -0.061441      0.178842
  Cl      1.976538     -0.397496      1.810479
  O       1.036789     -1.108819     -0.505847
  C      -0.416978     -1.498182     -0.204232
  C      -1.225833     -0.327571     -0.506455
  C      -1.064874      0.765643      0.261412
  H       0.793811      1.399820     -1.167632
  H       1.325069      2.015851      0.493187
  H      -0.418238     -1.795198      0.841944
  H      -0.577373     -2.355802     -0.845561
  H      -1.616473     -0.225823     -1.511288
  H      -1.489776      1.717044     -0.034557
  H      -0.792443      0.684543      1.304906
>
14
Coordinates from ORCA-job ts_scan Relaxed Surface Scan Step 10 E -63.712997397504
  C       1.031579      1.294832     -0.162565
  C       1.735681      0.067184      0.160749
  Cl      2.152380     -0.057906      1.913330
  O       1.973171     -0.842911     -0.558473
  C      -1.088615     -1.708800     -0.184693
  C      -1.226880     -0.445418     -0.569694
  C      -0.925347      0.685454      0.294705
  H       1.013251      1.503147     -1.224880
  H       1.209811      2.138851      0.487717
  H      -0.761455     -1.961914      0.816118
  H      -1.296930     -2.527612     -0.859096
  H      -1.538980     -0.225083     -1.583707
  H      -1.447811      1.611243      0.088537
  H      -0.829855      0.468933      1.352085
>
14
Coordinates from ORCA-job ts_scan Relaxed Surface Scan Step 11 E -63.724895700161
  C       0.983317      1.286988     -0.147220
  C       1.767620      0.088090      0.141881
  Cl      2.156942     -0.085024      1.892957
  O       2.088984     -0.762963     -0.612913
  C      -1.143499     -1.716105     -0.161386
  C      -1.191620     -0.457709     -0.576511
  C      -0.874782      0.684759      0.282650
  H       0.981421      1.523516     -1.204630
  H       1.164737      2.126064      0.510483
  H      -0.879083     -1.963116      0.859562
  H      -1.363852     -2.537697     -0.828656
  H      -1.445251     -0.243521     -1.608376
  H      -1.430498      1.593311      0.079765
  H      -0.814437      0.463406      1.342526
>
14
Coordinates from ORCA-job ts_scan Relaxed Surface Scan Step 12 E -63.737261358513
  C       0.934804      1.278646     -0.132086
  C       1.791108      0.109119      0.113966
  Cl      2.143227     -0.138949      1.860334
  O       2.195918     -0.665427     -0.679890
  C      -1.193890     -1.718557     -0.130772
  C      -1.149309     -0.472564     -0.577896
  C      -0.824378      0.684873      0.271291
  H       0.945202      1.549287     -1.182140
  H       1.125294      2.109037      0.536046
  H      -1.003076     -1.951312      0.909845
  H      -1.419668     -2.545276     -0.790042
  H      -1.333424     -0.274423     -1.627973
  H      -1.414719      1.572537      0.066201
  H      -0.797088      0.463010      1.333248
