
 *******************************************************************************
 *                                                                             *
 *  --------------------------------                                           *
 *   Amsterdam Modeling Suite (AMS)              2026.103                      *
 *  --------------------------------                                           *
 *                                               r260501 2026-05-01 873454b5   *
 *                                                                             *
 *                                                                             *
 *                              =================                              *
 *                              |               |                              *
 *                              |     A M S     |                              *
 *                              |               |                              *
 *                              =================                              *
 *                                                                             *
 *                                                                             *
 *   Online information and documentation:  https://www.scm.com/support/       *
 *   E-mail:  support@scm.com   info@scm.com                                   *
 *                                                                             *
 *   Scientific publications using AMS results must be properly referenced     *
 *   See the User Manuals (or the web site) for recommended citations          *
 *   The terms and conditions of the End User License Agreement apply to       *
 *   the use of AMS, https://www.scm.com/license-terms/                        *
 *                                                                             *
 **********************  x86_64_linux_intel / intelmpi  ************************
 
 Licensed to: Jong-June Jeon / University of Seoul 2026-06-02 13:44:15
 SCM User ID: u30731
  
 AMS 2026.103  RunTime: Jun03-2026 20:46:45  ShM Nodes: 1  Procs: 1

 AMS jobname: c3_eda
 AMS jobid  : 980065296

 Start   directory: /gpfs/home1/yeseo1ee/projects/eda-asm-prediction/ADF_800/adf_outputs/batch_005/qmrxn20_sn2_A_A_A_E_A_C/
 Results directory: /gpfs/home1/yeseo1ee/projects/eda-asm-prediction/ADF_800/adf_outputs/batch_005/qmrxn20_sn2_A_A_A_E_A_C/c3_eda.results/
 Scratch directory: /tmp/amstmp_c3_eda_kid0.980065296/

 RNG seed: 564758342 794759759 -479963036 1223908034 1699560727 2029766588 -1896142121 419932902



                      ************************************************************************
                      *  ADF 2026.103  RunTime: Jun03-2026 20:46:45  ShM Nodes: 1  Procs: 1  *
                      ************************************************************************
  

       ****************************
       * SINGLE POINT CALCULATION *
       ****************************

--------
Geometry
--------
Formula: C2H6ClFN
Atoms
  Index Symbol   x (angstrom)   y (angstrom)   z (angstrom)
      1      F    -1.30905377     0.14922828    -0.03536519 adf.f=fA
      2      C     0.70472580     0.03112589    -0.02607534 adf.f=fB
      3      H     1.76462414     1.91237943    -0.01719389 adf.f=fB
      4     Cl     2.81584787    -0.49659636     0.07593869 adf.f=fB
      5      C     0.73934701     1.54099254    -0.02064609 adf.f=fB
      6      H     0.56359158    -0.46328911    -0.96906852 adf.f=fB
      7      H     0.48871054    -0.50891939     0.87342908 adf.f=fB
      8      H     0.24295680     1.85817523     0.90652728 adf.f=fB
      9      N     0.05087315     2.01941999    -1.22413826 adf.f=fB
     10      H    -0.08121476     3.02214196    -1.14342168 adf.f=fB
     11      H    -0.85848836     1.56538156    -1.12674609 adf.f=fB

Total System Charge             -1.00000


----------------
ADF Engine Input
----------------
 
   Basis
     Type TZ2P
     Core None
   End
   XC
     GGA BLYP
     Dispersion GRIMME3 BJDAMP
   End
   Symmetry NOSYM
   NumericalQuality Normal
   Unrestricted No
   SCF
     Iterations 200
     Converge 1.0e-6
   End
   fragments
     fA c1_fragA_ts.results/adf.rkf
     fB c2_fragB_ts.results/adf.rkf
   end
   etsnocv
     enocv 0.05
     ekmin 0.5
   end
   print etslowdin
   Save TAPE21
 

 Title: *** (NO TITLE) ***

 *** adf ***



 ===========================
 A T T A C H E D   F I L E S
 ===========================
  



 ===============================
 M O D E L   P A R A M E T E R S
 ===============================
  
 DENSITY FUNCTIONAL POTENTIAL (scf)
    LDA:                               Exchange only                           == Not Default ==
    Gradient Corrections:              Becke88 LYP                             == Not Default ==

 SPIN  (restricted / unrestr.)
    Molecule:                          Restricted                               
    Fragments:                         Restricted                               

 OTHER ASPECTS
    Relativistic Corrections:          scalar (ZORA,MAPA)                       

    Nuclear Charge Density Model:      Point Charge Nuclei                      
    Core Treatment:                    Frozen Orbital(s)                        

    Hyperfine or Zeeman Interaction:   ---                                      

 Settings for Grimme D3 dispersion correction

      damping                        BJ
      s6                          1.000
      s8                          2.700
      a1                          0.430
      a2                          4.236

 Other (technical) parameters

      alpha                      14.000
      version                         4
 


 Fragment File(s)
 ----------------
 fA:
         file : c1_fragA_ts.results/adf.rkf
         jobid: 995011974
         title: *** adf ***
 fB:
         file : c2_fragB_ts.results/adf.rkf
         jobid: 1567523270
         title: *** adf ***



 ===============
 G E O M E T R Y  ***  3D  Molecule  ***
 ===============
  

 ATOMS
 =====                            X Y Z                    CHARGE
                                (Angstrom)             Nucl     +Core       At.Mass
                       --------------------------    ----------------       -------
    1  F              -1.3091    0.1492   -0.0354      9.00      9.00       18.9984
    2  C               0.7047    0.0311   -0.0261      6.00      6.00       12.0000
    3  H               1.7646    1.9124   -0.0172      1.00      1.00        1.0078
    4  Cl              2.8158   -0.4966    0.0759     17.00     17.00       34.9689
    5  C               0.7393    1.5410   -0.0206      6.00      6.00       12.0000
    6  H               0.5636   -0.4633   -0.9691      1.00      1.00        1.0078
    7  H               0.4887   -0.5089    0.8734      1.00      1.00        1.0078
    8  H               0.2430    1.8582    0.9065      1.00      1.00        1.0078
    9  N               0.0509    2.0194   -1.2241      7.00      7.00       14.0031
   10  H              -0.0812    3.0221   -1.1434      1.00      1.00        1.0078
   11  H              -0.8585    1.5654   -1.1267      1.00      1.00        1.0078


 FRAGMENTS
 =========                                     Atoms in this Fragment     Cart. coord.s (Angstrom)
                                               -------------------------------------------------------
    1  fA                                                1  F           -1.3091    0.1492   -0.0354
    2  fB                                                2  C            0.7047    0.0311   -0.0261
                                                         5  C            0.7393    1.5410   -0.0206
                                                         3  H            1.7646    1.9124   -0.0172
                                                         6  H            0.5636   -0.4633   -0.9691
                                                         7  H            0.4887   -0.5089    0.8734
                                                         8  H            0.2430    1.8582    0.9065
                                                        10  H           -0.0812    3.0221   -1.1434
                                                        11  H           -0.8585    1.5654   -1.1267
                                                         4  Cl           2.8158   -0.4966    0.0759
                                                         9  N            0.0509    2.0194   -1.2241


 Interatomic Distance Matrix (Angstrom)
 --------------------------------------

   1)     0.000
   2)     2.017   0.000
   3)     3.544   2.159   0.000
   4)     4.177   2.178   2.630   0.000
   5)     2.477   1.510   1.090   2.911   0.000
   6)     2.180   1.074   2.827   2.483   2.224   0.000
   7)     2.119   1.071   2.878   2.460   2.250   1.845   0.000
   8)     2.493   2.103   1.781   3.585   1.098   3.002   2.380   0.000
   9)     2.600   2.412   2.099   3.958   1.467   2.548   3.314   2.145   0.000
  10)     3.315   3.288   2.430   4.718   2.032   3.549   4.106   2.380   1.015   0.000
  11)     1.844   2.451   2.869   4.382   1.943   2.482   3.181   2.331   1.021   1.651
          0.000

 Min. Distance =    1.0146
 Max. Distance =    4.7182



 =====================================
 S Y M M E T R Y ,   E L E C T R O N S
 =====================================
  
 Symmetry: NOSYM

 Irreducible Representations, including subspecies
 -------------------------------------------------
 A


 Configuration of Valence Electrons
 ==================================
 ( determined in the SCF procedure )

 Total:   52

 Net Charge: -1 (Nuclei minus Electrons)

 Aufbau principle for MO occupations will be applied through SCF cycle no.     100
 Thereafter, the program will assign electrons to MOs that are spatially
 similar to the occupied MOs in a "reference" cycle ("KeepOrbitals").
 The reference cycle is always the PREVIOUS cycle: it will evolve with
 the SCF procedure.
 ***************************************************************************************************



                                      ****************************************
                                      *  B U I L D : (Fragments, Functions)  *
                                      ****************************************
  

 The individual fragments are copies of the corresponding 'Master' fragments defined on the fragment files.
 However, they may have been rotated (and translated) with respect to the Master. The local coordinate axes
 of each fragment (which define for instance the spatial orientation in the current molecule of a fragment
 P:x orbital) are not necessarily those of the molecule.
 The local frame (if different from the molecular one) is printed to enable an interpretation of the expan-
 sion of an MO in Fragment Orbitals.



                                              ************************
                                              *  Fragment Type : fA  *
                                              ************************
  

 Fragment no.    1   (in the list of all fragments)
 -----------------
 The local coordinate frame is identical to the molecular frame.

 Check Atomic Coordinates:

                  Master (on file)          After Computed Tranformation               As specified on Input
           ----------------------------     ----------------------------     ---------------------------------
     1)    -1.30905   0.14923  -0.03537     -1.30905   0.14923  -0.03537       1  -1.30905   0.14923  -0.03537



                                              ************************
                                              *  Fragment Type : fB  *
                                              ************************
  

 Fragment no.    2   (in the list of all fragments)
 -----------------
 The local coordinate frame is identical to the molecular frame.

 Check Atomic Coordinates:

                  Master (on file)          After Computed Tranformation               As specified on Input
           ----------------------------     ----------------------------     ---------------------------------
     1)     0.70473   0.03113  -0.02608      0.70473   0.03113  -0.02608       2   0.70473   0.03113  -0.02608
     2)     0.73935   1.54099  -0.02065      0.73935   1.54099  -0.02065       5   0.73935   1.54099  -0.02065
     3)     1.76462   1.91238  -0.01719      1.76462   1.91238  -0.01719       3   1.76462   1.91238  -0.01719
     4)     0.56359  -0.46329  -0.96907      0.56359  -0.46329  -0.96907       6   0.56359  -0.46329  -0.96907
     5)     0.48871  -0.50892   0.87343      0.48871  -0.50892   0.87343       7   0.48871  -0.50892   0.87343
     6)     0.24296   1.85818   0.90653      0.24296   1.85818   0.90653       8   0.24296   1.85818   0.90653
     7)    -0.08121   3.02214  -1.14342     -0.08121   3.02214  -1.14342      10  -0.08121   3.02214  -1.14342
     8)    -0.85849   1.56538  -1.12675     -0.85849   1.56538  -1.12675      11  -0.85849   1.56538  -1.12675
     9)     2.81585  -0.49660   0.07594      2.81585  -0.49660   0.07594       4   2.81585  -0.49660   0.07594
    10)     0.05087   2.01942  -1.22414      0.05087   2.01942  -1.22414       9   0.05087   2.01942  -1.22414



 =======
 S F O s  ***  (Symmetrized Fragment Orbitals)  ***
 =======
  
 SFOs are linear combinations of (valence) Fragment Orbitals (FOs), such that the SFOs transform as the
 irreducible representations of the (molecular) symmetry group. Each SFO is therefore characterized by
 an irrep of the molecule and by a few (or only one) generating FOs.
 The SFOs constitute a symmetry-adapted basis for the Fock matrix. The MO eigenvector coefficients in
 this basis provide a direct interpretation of the MOs in terms of Frontier Orbital Theory.

 The SFOs are combined with auxiliary Core Functions (CFs) to ensure orthogonalization on the (frozen)
 Core Orbitals (COs). The Core-orthogonalized SFOs (CSFOs) constitute the true Fock basis.

 The FOs, and hence also the (C)SFOs are combinations of the elementary basis functions (BAS). The basis
 functions that participate in the description of the SFOs depend on the irrep. The indices of the
 involved functions are printed below for each irrep.
 (The complete list of primitive basis functions is printed in another section)

 Total nr. of (C)SFOs (summation over all irreps) :   204

 NOTE: a (C)SFO that is defined as a combination of more than one FO is usually NOT normalized.



                                       === A ===
 Nr. of SFOs :  204
 Cartesian basis functions that participate in this irrep (total number =   230) :
      1     2     3     4     5     6     9    12     7    10
     13     8    11    14    15    16    17    18    19    20
     21    22    23    24    25    26    27    28    29    30
     31    32    33    34    35    36    39    42    37    40
     43    38    41    44    45    46    47    48    49    50
     51    52    53    54    55    56    57    58    59    60
     61    62    63    64    65    66    69    72    67    70
     73    68    71    74    75    76    77    78    79    80
     81    82    83    84    85    86    87    88    89    90
     91    92    93    94    95    96    97    98    99   100
    101   102   103   104   105   106   107   108   109   110
    111   112   113   114   115   116   117   118   119   120
    121   122   123   124   125   126   127   128   129   130
    131   132   133   134   135   136   137   138   139   140
    141   142   143   144   145   146   147   148   149   150
    151   152   153   154   155   156   157   158   159   160
    161   162   163   164   165   166   173   174   175   167
    170   176   179   182   168   171   177   180   183   169
    172   178   181   184   185   186   187   188   189   190
    191   192   193   194   195   196   197   198   199   200
    201   202   203   204   205   206   209   212   207   210
    213   208   211   214   215   216   217   218   219   220
    221   222   223   224   225   226   227   228   229   230

    SFO  (index         Fragment          Generating    Expansion in Fragment Orbitals
  indx  incl.CFs)   Occup   Orb.Energy   FragmentType  Coeff.   Orbital     on Fragment
 --------------------------------------------------------------------------------------
     1       1      2.000     -23.816 au  fA            1.00      1 A               1
                        (    -648.061 eV)
     2       2      2.000      -0.558 au  fA            1.00      2 A               1
                        (     -15.175 eV)
     3       3      2.000       0.108 au  fA            1.00      3 A               1
                        (       2.943 eV)
     4       4      2.000       0.108 au  fA            1.00      4 A               1
                        (       2.943 eV)
     5       5      2.000       0.108 au  fA            1.00      5 A               1
                        (       2.943 eV)
     6       6       --         0.286 au  fA            1.00      6 A               1
                        (       7.775 eV)
     7       7       --         0.812 au  fA            1.00      7 A               1
                        (      22.094 eV)
     8       8       --         0.812 au  fA            1.00      8 A               1
                        (      22.094 eV)
     9       9       --         0.812 au  fA            1.00      9 A               1
                        (      22.094 eV)
    10      10       --         1.565 au  fA            1.00     10 A               1
                        (      42.594 eV)
    11      11       --         1.565 au  fA            1.00     11 A               1
                        (      42.594 eV)
    12      12       --         1.565 au  fA            1.00     12 A               1
                        (      42.594 eV)
    13      13       --         1.565 au  fA            1.00     13 A               1
                        (      42.594 eV)
    14      14       --         1.565 au  fA            1.00     14 A               1
                        (      42.594 eV)
    15      15       --         2.036 au  fA            1.00     15 A               1
                        (      55.390 eV)
    16      16       --         3.895 au  fA            1.00     16 A               1
                        (     106.000 eV)
    17      17       --         3.895 au  fA            1.00     17 A               1
                        (     106.000 eV)
    18      18       --         3.895 au  fA            1.00     18 A               1
                        (     106.000 eV)
    19      19       --         3.895 au  fA            1.00     19 A               1
                        (     106.000 eV)
    20      20       --         3.895 au  fA            1.00     20 A               1
                        (     106.000 eV)
    21      21       --         3.895 au  fA            1.00     21 A               1
                        (     106.000 eV)
    22      22       --         3.895 au  fA            1.00     22 A               1
                        (     106.000 eV)
    23      23       --         5.080 au  fA            1.00     23 A               1
                        (     138.227 eV)
    24      24       --         5.080 au  fA            1.00     24 A               1
                        (     138.227 eV)
    25      25       --         5.080 au  fA            1.00     25 A               1
                        (     138.227 eV)
    26      26       --        48.370 au  fA            1.00     26 A               1
                        (    1316.209 eV)
    27      27      2.000    -101.046 au  fB            1.00      1 A               2
                        (   -2749.599 eV)
    28      28      2.000     -14.023 au  fB            1.00      2 A               2
                        (    -381.585 eV)
    29      29      2.000      -9.998 au  fB            1.00      3 A               2
                        (    -272.056 eV)
    30      30      2.000      -9.967 au  fB            1.00      4 A               2
                        (    -271.228 eV)
    31      31      2.000      -9.198 au  fB            1.00      5 A               2
                        (    -250.299 eV)
    32      32      2.000      -6.965 au  fB            1.00      6 A               2
                        (    -189.541 eV)
    33      33      2.000      -6.955 au  fB            1.00      7 A               2
                        (    -189.266 eV)
    34      34      2.000      -6.955 au  fB            1.00      8 A               2
                        (    -189.264 eV)
    35      35      2.000      -0.832 au  fB            1.00      9 A               2
                        (     -22.646 eV)
    36      36      2.000      -0.723 au  fB            1.00     10 A               2
                        (     -19.663 eV)
    37      37      2.000      -0.662 au  fB            1.00     11 A               2
                        (     -18.010 eV)
    38      38      2.000      -0.566 au  fB            1.00     12 A               2
                        (     -15.408 eV)
    39      39      2.000      -0.470 au  fB            1.00     13 A               2
                        (     -12.792 eV)
    40      40      2.000      -0.452 au  fB            1.00     14 A               2
                        (     -12.305 eV)
    41      41      2.000      -0.391 au  fB            1.00     15 A               2
                        (     -10.634 eV)
    42      42      2.000      -0.379 au  fB            1.00     16 A               2
                        (     -10.303 eV)
    43      43      2.000      -0.359 au  fB            1.00     17 A               2
                        (      -9.760 eV)
    44      44      2.000      -0.298 au  fB            1.00     18 A               2
                        (      -8.098 eV)
    45      45      2.000      -0.244 au  fB            1.00     19 A               2
                        (      -6.644 eV)
    46      46      2.000      -0.242 au  fB            1.00     20 A               2
                        (      -6.588 eV)
    47      47      2.000      -0.224 au  fB            1.00     21 A               2
                        (      -6.106 eV)
    48      48       --        -0.109 au  fB            1.00     22 A               2
                        (      -2.964 eV)
    49      49       --        -0.021 au  fB            1.00     23 A               2
                        (      -0.579 eV)
    50      50       --         0.008 au  fB            1.00     24 A               2
                        (       0.205 eV)
    51      51       --         0.017 au  fB            1.00     25 A               2
                        (       0.469 eV)
    52      52       --         0.034 au  fB            1.00     26 A               2
                        (       0.937 eV)
    53      53       --         0.052 au  fB            1.00     27 A               2
                        (       1.428 eV)
    54      54       --         0.074 au  fB            1.00     28 A               2
                        (       2.024 eV)
    55      55       --         0.119 au  fB            1.00     29 A               2
                        (       3.233 eV)
    56      56       --         0.126 au  fB            1.00     30 A               2
                        (       3.421 eV)
    57      57       --         0.151 au  fB            1.00     31 A               2
                        (       4.120 eV)
    58      58       --         0.170 au  fB            1.00     32 A               2
                        (       4.624 eV)
    59      59       --         0.209 au  fB            1.00     33 A               2
                        (       5.700 eV)
    60      60       --         0.217 au  fB            1.00     34 A               2
                        (       5.903 eV)
    61      61       --         0.233 au  fB            1.00     35 A               2
                        (       6.350 eV)
    62      62       --         0.246 au  fB            1.00     36 A               2
                        (       6.701 eV)
    63      63       --         0.282 au  fB            1.00     37 A               2
                        (       7.671 eV)
    64      64       --         0.300 au  fB            1.00     38 A               2
                        (       8.176 eV)
    65      65       --         0.309 au  fB            1.00     39 A               2
                        (       8.401 eV)
    66      66       --         0.317 au  fB            1.00     40 A               2
                        (       8.615 eV)
    67      67       --         0.331 au  fB            1.00     41 A               2
                        (       9.000 eV)
    68      68       --         0.344 au  fB            1.00     42 A               2
                        (       9.360 eV)
    69      69       --         0.351 au  fB            1.00     43 A               2
                        (       9.563 eV)
    70      70       --         0.367 au  fB            1.00     44 A               2
                        (       9.998 eV)
    71      71       --         0.381 au  fB            1.00     45 A               2
                        (      10.377 eV)
    72      72       --         0.396 au  fB            1.00     46 A               2
                        (      10.786 eV)
    73      73       --         0.427 au  fB            1.00     47 A               2
                        (      11.606 eV)
    74      74       --         0.433 au  fB            1.00     48 A               2
                        (      11.783 eV)
    75      75       --         0.442 au  fB            1.00     49 A               2
                        (      12.036 eV)
    76      76       --         0.473 au  fB            1.00     50 A               2
                        (      12.871 eV)
    77      77       --         0.482 au  fB            1.00     51 A               2
                        (      13.126 eV)
    78      78       --         0.511 au  fB            1.00     52 A               2
                        (      13.902 eV)
    79      79       --         0.547 au  fB            1.00     53 A               2
                        (      14.892 eV)
    80      80       --         0.581 au  fB            1.00     54 A               2
                        (      15.811 eV)
    81      81       --         0.638 au  fB            1.00     55 A               2
                        (      17.353 eV)
    82      82       --         0.666 au  fB            1.00     56 A               2
                        (      18.116 eV)
    83      83       --         0.725 au  fB            1.00     57 A               2
                        (      19.734 eV)
    84      84       --         0.794 au  fB            1.00     58 A               2
                        (      21.606 eV)
    85      85       --         0.879 au  fB            1.00     59 A               2
                        (      23.926 eV)
    86      86       --         0.915 au  fB            1.00     60 A               2
                        (      24.900 eV)
    87      87       --         0.946 au  fB            1.00     61 A               2
                        (      25.752 eV)
    88      88       --         0.985 au  fB            1.00     62 A               2
                        (      26.816 eV)
    89      89       --         0.989 au  fB            1.00     63 A               2
                        (      26.902 eV)
    90      90       --         1.018 au  fB            1.00     64 A               2
                        (      27.708 eV)
    91      91       --         1.058 au  fB            1.00     65 A               2
                        (      28.791 eV)
    92      92       --         1.100 au  fB            1.00     66 A               2
                        (      29.944 eV)
    93      93       --         1.126 au  fB            1.00     67 A               2
                        (      30.644 eV)
    94      94       --         1.149 au  fB            1.00     68 A               2
                        (      31.259 eV)
    95      95       --         1.186 au  fB            1.00     69 A               2
                        (      32.284 eV)
    96      96       --         1.199 au  fB            1.00     70 A               2
                        (      32.624 eV)
    97      97       --         1.223 au  fB            1.00     71 A               2
                        (      33.273 eV)
    98      98       --         1.236 au  fB            1.00     72 A               2
                        (      33.638 eV)
    99      99       --         1.256 au  fB            1.00     73 A               2
                        (      34.164 eV)
   100     100       --         1.268 au  fB            1.00     74 A               2
                        (      34.499 eV)
   101     101       --         1.285 au  fB            1.00     75 A               2
                        (      34.955 eV)
   102     102       --         1.306 au  fB            1.00     76 A               2
                        (      35.535 eV)
   103     103       --         1.320 au  fB            1.00     77 A               2
                        (      35.930 eV)
   104     104       --         1.327 au  fB            1.00     78 A               2
                        (      36.114 eV)
   105     105       --         1.366 au  fB            1.00     79 A               2
                        (      37.182 eV)
   106     106       --         1.383 au  fB            1.00     80 A               2
                        (      37.642 eV)
   107     107       --         1.450 au  fB            1.00     81 A               2
                        (      39.453 eV)
   108     108       --         1.468 au  fB            1.00     82 A               2
                        (      39.943 eV)
   109     109       --         1.545 au  fB            1.00     83 A               2
                        (      42.034 eV)
   110     110       --         1.604 au  fB            1.00     84 A               2
                        (      43.648 eV)
   111     111       --         1.640 au  fB            1.00     85 A               2
                        (      44.638 eV)
   112     112       --         1.691 au  fB            1.00     86 A               2
                        (      46.008 eV)
   113     113       --         1.736 au  fB            1.00     87 A               2
                        (      47.226 eV)
   114     114       --         1.795 au  fB            1.00     88 A               2
                        (      48.835 eV)
   115     115       --         1.892 au  fB            1.00     89 A               2
                        (      51.478 eV)
   116     116       --         1.920 au  fB            1.00     90 A               2
                        (      52.258 eV)
   117     117       --         1.951 au  fB            1.00     91 A               2
                        (      53.101 eV)
   118     118       --         1.971 au  fB            1.00     92 A               2
                        (      53.642 eV)
   119     119       --         2.007 au  fB            1.00     93 A               2
                        (      54.623 eV)
   120     120       --         2.042 au  fB            1.00     94 A               2
                        (      55.571 eV)
   121     121       --         2.120 au  fB            1.00     95 A               2
                        (      57.702 eV)
   122     122       --         2.190 au  fB            1.00     96 A               2
                        (      59.585 eV)
   123     123       --         2.240 au  fB            1.00     97 A               2
                        (      60.952 eV)
   124     124       --         2.259 au  fB            1.00     98 A               2
                        (      61.459 eV)
   125     125       --         2.271 au  fB            1.00     99 A               2
                        (      61.800 eV)
   126     126       --         2.322 au  fB            1.00    100 A               2
                        (      63.177 eV)
   127     127       --         2.369 au  fB            1.00    101 A               2
                        (      64.462 eV)
   128     128       --         2.426 au  fB            1.00    102 A               2
                        (      66.012 eV)
   129     129       --         2.490 au  fB            1.00    103 A               2
                        (      67.763 eV)
   130     130       --         2.534 au  fB            1.00    104 A               2
                        (      68.948 eV)
   131     131       --         2.551 au  fB            1.00    105 A               2
                        (      69.417 eV)
   132     132       --         2.678 au  fB            1.00    106 A               2
                        (      72.883 eV)
   133     133       --         2.680 au  fB            1.00    107 A               2
                        (      72.932 eV)
   134     134       --         2.730 au  fB            1.00    108 A               2
                        (      74.299 eV)
   135     135       --         2.766 au  fB            1.00    109 A               2
                        (      75.275 eV)
   136     136       --         2.810 au  fB            1.00    110 A               2
                        (      76.463 eV)
   137     137       --         2.830 au  fB            1.00    111 A               2
                        (      76.999 eV)
   138     138       --         2.859 au  fB            1.00    112 A               2
                        (      77.791 eV)
   139     139       --         2.912 au  fB            1.00    113 A               2
                        (      79.230 eV)
   140     140       --         2.937 au  fB            1.00    114 A               2
                        (      79.919 eV)
   141     141       --         2.976 au  fB            1.00    115 A               2
                        (      80.990 eV)
   142     142       --         2.987 au  fB            1.00    116 A               2
                        (      81.275 eV)
   143     143       --         3.035 au  fB            1.00    117 A               2
                        (      82.588 eV)
   144     144       --         3.061 au  fB            1.00    118 A               2
                        (      83.284 eV)
   145     145       --         3.135 au  fB            1.00    119 A               2
                        (      85.316 eV)
   146     146       --         3.176 au  fB            1.00    120 A               2
                        (      86.433 eV)
   147     147       --         3.342 au  fB            1.00    121 A               2
                        (      90.946 eV)
   148     148       --         3.390 au  fB            1.00    122 A               2
                        (      92.250 eV)
   149     149       --         3.473 au  fB            1.00    123 A               2
                        (      94.504 eV)
   150     150       --         3.531 au  fB            1.00    124 A               2
                        (      96.085 eV)
   151     151       --         3.636 au  fB            1.00    125 A               2
                        (      98.938 eV)
   152     152       --         3.662 au  fB            1.00    126 A               2
                        (      99.653 eV)
   153     153       --         3.745 au  fB            1.00    127 A               2
                        (     101.894 eV)
   154     154       --         3.773 au  fB            1.00    128 A               2
                        (     102.678 eV)
   155     155       --         3.819 au  fB            1.00    129 A               2
                        (     103.925 eV)
   156     156       --         3.862 au  fB            1.00    130 A               2
                        (     105.098 eV)
   157     157       --         3.897 au  fB            1.00    131 A               2
                        (     106.040 eV)
   158     158       --         3.920 au  fB            1.00    132 A               2
                        (     106.656 eV)
   159     159       --         4.088 au  fB            1.00    133 A               2
                        (     111.229 eV)
   160     160       --         4.193 au  fB            1.00    134 A               2
                        (     114.088 eV)
   161     161       --         4.289 au  fB            1.00    135 A               2
                        (     116.700 eV)
   162     162       --         4.385 au  fB            1.00    136 A               2
                        (     119.319 eV)
   163     163       --         4.491 au  fB            1.00    137 A               2
                        (     122.199 eV)
   164     164       --         4.643 au  fB            1.00    138 A               2
                        (     126.344 eV)
   165     165       --         4.686 au  fB            1.00    139 A               2
                        (     127.523 eV)
   166     166       --         4.838 au  fB            1.00    140 A               2
                        (     131.650 eV)
   167     167       --         4.862 au  fB            1.00    141 A               2
                        (     132.299 eV)
   168     168       --         4.881 au  fB            1.00    142 A               2
                        (     132.812 eV)
   169     169       --         5.007 au  fB            1.00    143 A               2
                        (     136.246 eV)
   170     170       --         5.016 au  fB            1.00    144 A               2
                        (     136.494 eV)
   171     171       --         5.133 au  fB            1.00    145 A               2
                        (     139.672 eV)
   172     172       --         5.223 au  fB            1.00    146 A               2
                        (     142.127 eV)
   173     173       --         5.305 au  fB            1.00    147 A               2
                        (     144.361 eV)
   174     174       --         5.393 au  fB            1.00    148 A               2
                        (     146.754 eV)
   175     175       --         5.458 au  fB            1.00    149 A               2
                        (     148.525 eV)
   176     176       --         5.574 au  fB            1.00    150 A               2
                        (     151.668 eV)
   177     177       --         5.796 au  fB            1.00    151 A               2
                        (     157.721 eV)
   178     178       --         6.061 au  fB            1.00    152 A               2
                        (     164.928 eV)
   179     179       --         6.119 au  fB            1.00    153 A               2
                        (     166.503 eV)
   180     180       --         6.222 au  fB            1.00    154 A               2
                        (     169.308 eV)
   181     181       --         6.310 au  fB            1.00    155 A               2
                        (     171.707 eV)
   182     182       --         6.390 au  fB            1.00    156 A               2
                        (     173.872 eV)
   183     183       --         6.418 au  fB            1.00    157 A               2
                        (     174.640 eV)
   184     184       --         6.450 au  fB            1.00    158 A               2
                        (     175.503 eV)
   185     185       --         6.616 au  fB            1.00    159 A               2
                        (     180.044 eV)
   186     186       --         6.758 au  fB            1.00    160 A               2
                        (     183.901 eV)
   187     187       --         6.804 au  fB            1.00    161 A               2
                        (     185.149 eV)
   188     188       --         6.885 au  fB            1.00    162 A               2
                        (     187.344 eV)
   189     189       --         6.928 au  fB            1.00    163 A               2
                        (     188.515 eV)
   190     190       --         7.276 au  fB            1.00    164 A               2
                        (     197.986 eV)
   191     191       --         7.356 au  fB            1.00    165 A               2
                        (     200.156 eV)
   192     192       --         7.917 au  fB            1.00    166 A               2
                        (     215.423 eV)
   193     193       --         8.192 au  fB            1.00    167 A               2
                        (     222.910 eV)
   194     194       --         8.611 au  fB            1.00    168 A               2
                        (     234.330 eV)
   195     195       --         9.029 au  fB            1.00    169 A               2
                        (     245.688 eV)
   196     196       --         9.569 au  fB            1.00    170 A               2
                        (     260.395 eV)
   197     197       --        13.605 au  fB            1.00    171 A               2
                        (     370.203 eV)
   198     198       --        18.940 au  fB            1.00    172 A               2
                        (     515.383 eV)
   199     199       --        19.006 au  fB            1.00    173 A               2
                        (     517.190 eV)
   200     200       --        19.388 au  fB            1.00    174 A               2
                        (     527.573 eV)
   201     201       --        54.631 au  fB            1.00    175 A               2
                        (    1486.582 eV)
   202     202       --        58.431 au  fB            1.00    176 A               2
                        (    1589.987 eV)
   203     203       --        70.898 au  fB            1.00    177 A               2
                        (    1929.233 eV)
   204     204       --       208.685 au  fB            1.00    178 A               2
                        (    5678.595 eV)



 ================================
 (Slater-type)  F U N C T I O N S  ***  (Basis and Fit)  ***
 ================================
  

 Atom Type    1  (F)
 ==============

 Valence Basis Sets:  10
 -----------------------
   1 S   10.880000
   1 S    7.700000
   2 S    3.240000
   2 S    1.940000
   2 S    0.740000
   2 P    4.540000
   2 P    2.300000
   2 P    1.240000
   3 D    2.000000
   4 F    3.000000

 Atom Type    2  (C)
 ==============

 Valence Basis Sets:  10
 -----------------------
   1 S    7.680000
   1 S    5.000000
   2 S    1.280000
   2 S    2.100000
   2 S    4.600000
   2 P    0.820000
   2 P    1.480000
   2 P    2.940000
   3 D    2.200000
   4 F    3.300000

 Atom Type    3  (H)
 ==============

 Valence Basis Sets:   5
 -----------------------
   1 S    0.690000
   1 S    0.920000
   1 S    1.580000
   2 P    1.250000
   3 D    2.500000

 Atom Type    4  (Cl)
 ==============

 Valence Basis Sets:  14
 -----------------------
   1 S   20.300000
   1 S   15.250000
   2 S    6.250000
   2 S    4.450000
   2 P    8.850000
   2 P    5.050000
   3 S    3.450000
   3 S    2.300000
   3 S    1.600000
   3 P    3.350000
   3 P    2.050000
   3 P    1.200000
   3 D    2.000000
   4 F    2.000000

 Atom Type    5  (N)
 ==============

 Valence Basis Sets:  10
 -----------------------
   1 S    8.740000
   1 S    5.900000
   2 S    5.150000
   2 S    2.500000
   2 S    1.500000
   2 P    3.680000
   2 P    1.880000
   2 P    1.000000
   3 D    2.200000
   4 F    3.300000


 BAS: List of all Elementary Cartesian Basis Functions
 =====================================================

 The numbering in the list below (to the right of the function characteristics) is referred
 to in print-outs of MO eigenvectors and Mulliken populations in the BAS representation
 (as contrasted to the SFO representation).

 Notes:
 1. The functions are characterized by a polynomial prefactor (powers of x,y,z and r) and
    an exponential decay factor alpha.
 2. Since the basis sets are specific for an atom TYPE, the individual functions occur on
    all atoms of that type.
 3. The word 'Core' in the left margin signals that it is a Core Function (CF) : not a
    degree of freedom in the valence set, but only used to ensure orthogonalization of
    the other valence basis functions on the frozen Core Orbitals.


 (power of) X  Y  Z  R     Alpha  on Atom
            ==========     =====     ==========

 F                                    1
                                  ---------------------------------------------------------------------------
            0  0  0  0    10.880      1
            0  0  0  0     7.700      2
            0  0  0  1     3.240      3
            0  0  0  1     1.940      4
            0  0  0  1     0.740      5
            1  0  0  0     4.540      6
            0  1  0  0     4.540      7
            0  0  1  0     4.540      8
            1  0  0  0     2.300      9
            0  1  0  0     2.300     10
            0  0  1  0     2.300     11
            1  0  0  0     1.240     12
            0  1  0  0     1.240     13
            0  0  1  0     1.240     14
            2  0  0  0     2.000     15
            1  1  0  0     2.000     16
            1  0  1  0     2.000     17
            0  2  0  0     2.000     18
            0  1  1  0     2.000     19
            0  0  2  0     2.000     20
            3  0  0  0     3.000     21
            2  1  0  0     3.000     22
            2  0  1  0     3.000     23
            1  2  0  0     3.000     24
            1  1  1  0     3.000     25
            1  0  2  0     3.000     26
            0  3  0  0     3.000     27
            0  2  1  0     3.000     28
            0  1  2  0     3.000     29
            0  0  3  0     3.000     30

 C                                    2    3
                                  ---------------------------------------------------------------------------
            0  0  0  0     7.680     31   61
            0  0  0  0     5.000     32   62
            0  0  0  1     1.280     33   63
            0  0  0  1     2.100     34   64
            0  0  0  1     4.600     35   65
            1  0  0  0     0.820     36   66
            0  1  0  0     0.820     37   67
            0  0  1  0     0.820     38   68
            1  0  0  0     1.480     39   69
            0  1  0  0     1.480     40   70
            0  0  1  0     1.480     41   71
            1  0  0  0     2.940     42   72
            0  1  0  0     2.940     43   73
            0  0  1  0     2.940     44   74
            2  0  0  0     2.200     45   75
            1  1  0  0     2.200     46   76
            1  0  1  0     2.200     47   77
            0  2  0  0     2.200     48   78
            0  1  1  0     2.200     49   79
            0  0  2  0     2.200     50   80
            3  0  0  0     3.300     51   81
            2  1  0  0     3.300     52   82
            2  0  1  0     3.300     53   83
            1  2  0  0     3.300     54   84
            1  1  1  0     3.300     55   85
            1  0  2  0     3.300     56   86
            0  3  0  0     3.300     57   87
            0  2  1  0     3.300     58   88
            0  1  2  0     3.300     59   89
            0  0  3  0     3.300     60   90

 H                                    4    5    6    7    8    9
                                  ---------------------------------------------------------------------------
            0  0  0  0     0.690     91  103  115  127  139  151
            0  0  0  0     0.920     92  104  116  128  140  152
            0  0  0  0     1.580     93  105  117  129  141  153
            1  0  0  0     1.250     94  106  118  130  142  154
            0  1  0  0     1.250     95  107  119  131  143  155
            0  0  1  0     1.250     96  108  120  132  144  156
            2  0  0  0     2.500     97  109  121  133  145  157
            1  1  0  0     2.500     98  110  122  134  146  158
            1  0  1  0     2.500     99  111  123  135  147  159
            0  2  0  0     2.500    100  112  124  136  148  160
            0  1  1  0     2.500    101  113  125  137  149  161
            0  0  2  0     2.500    102  114  126  138  150  162

 Cl                                  10
                                  ---------------------------------------------------------------------------
            0  0  0  0    20.300    163
            0  0  0  0    15.250    164
            0  0  0  1     6.250    165
            0  0  0  1     4.450    166
            1  0  0  0     8.850    167
            0  1  0  0     8.850    168
            0  0  1  0     8.850    169
            1  0  0  0     5.050    170
            0  1  0  0     5.050    171
            0  0  1  0     5.050    172
            0  0  0  2     3.450    173
            0  0  0  2     2.300    174
            0  0  0  2     1.600    175
            1  0  0  1     3.350    176
            0  1  0  1     3.350    177
            0  0  1  1     3.350    178
            1  0  0  1     2.050    179
            0  1  0  1     2.050    180
            0  0  1  1     2.050    181
            1  0  0  1     1.200    182
            0  1  0  1     1.200    183
            0  0  1  1     1.200    184
            2  0  0  0     2.000    185
            1  1  0  0     2.000    186
            1  0  1  0     2.000    187
            0  2  0  0     2.000    188
            0  1  1  0     2.000    189
            0  0  2  0     2.000    190
            3  0  0  0     2.000    191
            2  1  0  0     2.000    192
            2  0  1  0     2.000    193
            1  2  0  0     2.000    194
            1  1  1  0     2.000    195
            1  0  2  0     2.000    196
            0  3  0  0     2.000    197
            0  2  1  0     2.000    198
            0  1  2  0     2.000    199
            0  0  3  0     2.000    200

 N                                   11
                                  ---------------------------------------------------------------------------
            0  0  0  0     8.740    201
            0  0  0  0     5.900    202
            0  0  0  1     5.150    203
            0  0  0  1     2.500    204
            0  0  0  1     1.500    205
            1  0  0  0     3.680    206
            0  1  0  0     3.680    207
            0  0  1  0     3.680    208
            1  0  0  0     1.880    209
            0  1  0  0     1.880    210
            0  0  1  0     1.880    211
            1  0  0  0     1.000    212
            0  1  0  0     1.000    213
            0  0  1  0     1.000    214
            2  0  0  0     2.200    215
            1  1  0  0     2.200    216
            1  0  1  0     2.200    217
            0  2  0  0     2.200    218
            0  1  1  0     2.200    219
            0  0  2  0     2.200    220
            3  0  0  0     3.300    221
            2  1  0  0     3.300    222
            2  0  1  0     3.300    223
            1  2  0  0     3.300    224
            1  1  1  0     3.300    225
            1  0  2  0     3.300    226
            0  3  0  0     3.300    227
            0  2  1  0     3.300    228
            0  1  2  0     3.300    229
            0  0  3  0     3.300    230

 Total number of charge fitting functions (nprimf)       743
 Total number of Cartesian basis functions (naos)        230
 Total number of Cartesian core functions  (ncos)          0

 ***************************************************************************************************



                                              ***********************
                                              *  T E C H N I C A L  *
                                              ***********************
  



 =============================================================
 P A R A L L E L I Z A T I O N  and  V E C T O R I Z A T I O N
 =============================================================
  
 Nr of parallel processes:                                1
 Maximum vector length in NumInt loops:                 128



 =====================
 S C F   U P D A T E S
 =====================
  
 Max. nr. of cycles:                               200
 Convergence criterion:                              0.0000010000
   secondary criterion:                              0.0010000000

 Mix parameter (when DIIS does not apply):           0.2000000000
 Mixed ADIIS+SDIIS will be used                  
    Max number of expansion vectors:                10
    Pure ADIIS when Max([F,P]) is above              0.1000000000
    Pure SDIIS when Max([F,P]) is below              0.0010000000
 Automatic ElectronSmearing (in case of problematic SCF convergence) disabled



 =================
 P R E C I S I O N  ***  (General: NumInt, NeglectFunctionTails, ...)  ***
 =================
  

 NumInt:           Target precision:                 4.0000000000
 -------           Initial precision:                4.0000000000
                   Min. precision (optimization):    4.0000000000

 Neglect Functions:          Basis functions:        0.1000000000E-05
 ------------------          Fit functions:          0.1000000000E-05



 ===========================
 L I N E A R   S C A L I N G
 ===========================
  

 Cut-off radii density fit:                        0.1000000000E-07
 Overlap cut-off criterion AO matrix elements:     0.1000000000E-05
 Cut-offs for Coulomb potential and fitted density:0.1000000000E-07
 Cut-off criterion for Coulomb multipole terms:    0.1000000000E-07
 Progressive Convergence parameter:                 0.000000000    
 ***************************************************************************************************



                                            ***************************
                                            *  C O M P U T A T I O N  *
                                            ***************************
  

 Number of elements of the density matrix on this node (used, total):     26565     26565



 ===========================================
 Numerical Integration : Fuzzy Cells (Becke)
 ===========================================
  
 Becke grid quality: NORMAL         
  
 Lebedev angular grid order:             min:  11 max:  23
 Nr. of radial points:                   min:  46 max:  67

 Total nr. of points:      73360
 Nr. of blocks:              574
 Block length:               128
 Nr. of dummy points:        112


 Test of Precision of the Numerical Integration Grid
 ===================================================

 Integral of the Total Core Density:                   0.00000000000000



 ========================
 Density Fitting (zlmFit)
 ========================
  
 ZlmFit Fit Quality: NORMAL         
  
 Max L-expansion:                        min:   6 max:   7
 Nr. of radial interpolation points:     min:  39 max:  60



 =====
 S C F  ***  ScaSCF  ***
 =====
  
 Initial density matrix is calculated as sum of fragments

 CYCLE    1
 SCF Error: norm([F,P])=      0.772597048109, max([F,P])=      0.357950437419
 orbitals (Q,E):
 ---------------
 A :17...36          ( 2.00    -0.1878)  ( 2.00    -0.1621)  ( 2.00    -0.1513)  ( 2.00    -0.1314)
                     ( 2.00    -0.1113)  ( 2.00    -0.1080)  ( 2.00    -0.0342)  ( 2.00     0.0323)
                     ( 2.00     0.0579)  ( 2.00     0.0600)  ( 0.00     0.1264)  ( 0.00     0.1636)
                     ( 0.00     0.1654)  ( 0.00     0.1911)  ( 0.00     0.1974)  ( 0.00     0.2386)
                     ( 0.00     0.2586)  ( 0.00     0.2922)  ( 0.00     0.3074)  ( 0.00     0.3133)

 CYCLE    2
   MIX coefficients:  0.8000  0.2000
 SCF Error: norm([F,P])=      0.900903241557, max([F,P])=      0.388207771077
 orbitals (Q,E):
 ---------------
 A :17...27          ( 2.00    -0.1950)  ( 2.00    -0.1715)  ( 2.00    -0.1577)  ( 2.00    -0.1191)
                     ( 2.00    -0.0788)  ( 2.00    -0.0776)  ( 2.00    -0.0505)  ( 2.00    -0.0415)
                     ( 2.00    -0.0383)  ( 2.00    -0.0307)  ( 0.00     0.1238)

 CYCLE    3
  SDIIS (wt  0.000):  0.1333  0.8667
 A-DIIS (wt  1.000):  0.0000  1.0000
  DIIS coefficients:  0.0000  1.0000
 SCF Error: norm([F,P])=      0.303559747864, max([F,P])=      0.085623210441
 orbitals (Q,E):
 ---------------
 A :17...27          ( 2.00    -0.2356)  ( 2.00    -0.2253)  ( 2.00    -0.2023)  ( 2.00    -0.1274)
                     ( 2.00    -0.0705)  ( 2.00    -0.0489)  ( 2.00    -0.0449)  ( 2.00    -0.0387)
                     ( 2.00    -0.0358)  ( 2.00    -0.0330)  ( 0.00     0.1031)

 CYCLE    4
  SDIIS (wt  0.000): -0.0019  0.6935  0.3083
 A-DIIS (wt  1.000):  0.0000  0.7787  0.2213
  DIIS coefficients:  0.0000  0.7787  0.2213
 SCF Error: norm([F,P])=      0.664059448556, max([F,P])=      0.200122735910
 orbitals (Q,E):
 ---------------
 A :17...27          ( 2.00    -0.2128)  ( 2.00    -0.1995)  ( 2.00    -0.1809)  ( 2.00    -0.1243)
                     ( 2.00    -0.0730)  ( 2.00    -0.0658)  ( 2.00    -0.0596)  ( 2.00    -0.0535)
                     ( 2.00    -0.0511)  ( 2.00    -0.0435)  ( 0.00     0.1161)

 CYCLE    5
  SDIIS (wt  0.612):  0.0182  0.3015 -0.0118  0.6921
 A-DIIS (wt  0.388):  0.0000  0.2138  0.0000  0.7862
  DIIS coefficients:  0.0111  0.2675 -0.0072  0.7286
 SCF Error: norm([F,P])=      0.141856608299, max([F,P])=      0.039366852269
 orbitals (Q,E):
 ---------------
 A :17...27          ( 2.00    -0.2066)  ( 2.00    -0.1890)  ( 2.00    -0.1729)  ( 2.00    -0.1231)
                     ( 2.00    -0.0705)  ( 2.00    -0.0681)  ( 2.00    -0.0630)  ( 2.00    -0.0546)
                     ( 2.00    -0.0512)  ( 2.00    -0.0411)  ( 0.00     0.1191)

 CYCLE    6
  SDIIS (wt  0.906):  0.0003  0.1093  0.0224  0.2741  0.5938
 A-DIIS (wt  0.094):  0.0000  0.0000  0.0000  0.0255  0.9745
  DIIS coefficients:  0.0003  0.0990  0.0202  0.2506  0.6298
 SCF Error: norm([F,P])=      0.036242425170, max([F,P])=      0.010347913864
 orbitals (Q,E):
 ---------------
 A :17...27          ( 2.00    -0.2080)  ( 2.00    -0.1914)  ( 2.00    -0.1749)  ( 2.00    -0.1226)
                     ( 2.00    -0.0692)  ( 2.00    -0.0658)  ( 2.00    -0.0616)  ( 2.00    -0.0536)
                     ( 2.00    -0.0500)  ( 2.00    -0.0411)  ( 0.00     0.1186)

 CYCLE    7
  SDIIS (wt  0.988): -0.0003  0.0279  0.0023  0.0877  0.2877  0.5946
 A-DIIS (wt  0.012):  0.0000  0.0000  0.0000  0.0000  0.0163  0.9837
  DIIS coefficients: -0.0003  0.0276  0.0023  0.0867  0.2845  0.5993
 SCF Error: norm([F,P])=      0.008729270733, max([F,P])=      0.002181055102
 orbitals (Q,E):
 ---------------
 A :17...27          ( 2.00    -0.2078)  ( 2.00    -0.1910)  ( 2.00    -0.1746)  ( 2.00    -0.1227)
                     ( 2.00    -0.0696)  ( 2.00    -0.0663)  ( 2.00    -0.0619)  ( 2.00    -0.0539)
                     ( 2.00    -0.0503)  ( 2.00    -0.0413)  ( 0.00     0.1186)

 CYCLE    8
  SDIIS (wt  1.000): -0.0002  0.0086 -0.0016  0.0313  0.1060  0.3526  0.5034
  DIIS coefficients: -0.0002  0.0086 -0.0016  0.0313  0.1060  0.3526  0.5034
 SCF Error: norm([F,P])=      0.001948058852, max([F,P])=      0.000308233682
 orbitals (Q,E):
 ---------------
 A :17...27          ( 2.00    -0.2077)  ( 2.00    -0.1910)  ( 2.00    -0.1746)  ( 2.00    -0.1227)
                     ( 2.00    -0.0695)  ( 2.00    -0.0663)  ( 2.00    -0.0619)  ( 2.00    -0.0539)
                     ( 2.00    -0.0503)  ( 2.00    -0.0412)  ( 0.00     0.1187)

 CYCLE    9
  SDIIS (wt  1.000): -0.0001  0.0029 -0.0013  0.0121  0.0391  0.1529  0.2856  0.5089
  DIIS coefficients: -0.0001  0.0029 -0.0013  0.0121  0.0391  0.1529  0.2856  0.5089
 SCF Error: norm([F,P])=      0.000531624987, max([F,P])=      0.000087340125
 orbitals (Q,E):
 ---------------
 A :17...27          ( 2.00    -0.2077)  ( 2.00    -0.1910)  ( 2.00    -0.1745)  ( 2.00    -0.1227)
                     ( 2.00    -0.0695)  ( 2.00    -0.0662)  ( 2.00    -0.0619)  ( 2.00    -0.0539)
                     ( 2.00    -0.0503)  ( 2.00    -0.0412)  ( 0.00     0.1187)

 CYCLE   10
  SDIIS (wt  1.000):  0.0000  0.0009 -0.0006  0.0040  0.0123  0.0479  0.1050  0.2711  0.5594
  DIIS coefficients:  0.0000  0.0009 -0.0006  0.0040  0.0123  0.0479  0.1050  0.2711  0.5594
 SCF Error: norm([F,P])=      0.000136381823, max([F,P])=      0.000029261841
 orbitals (Q,E):
 ---------------
 A :17...27          ( 2.00    -0.2077)  ( 2.00    -0.1910)  ( 2.00    -0.1745)  ( 2.00    -0.1227)
                     ( 2.00    -0.0695)  ( 2.00    -0.0663)  ( 2.00    -0.0619)  ( 2.00    -0.0539)
                     ( 2.00    -0.0503)  ( 2.00    -0.0412)  ( 0.00     0.1187)

 CYCLE   11
  SDIIS (wt  1.000):  0.0000  0.0002 -0.0001  0.0009  0.0032  0.0114  0.0289  0.0881  0.2743  0.5932
  DIIS coefficients:  0.0000  0.0002 -0.0001  0.0009  0.0032  0.0114  0.0289  0.0881  0.2743  0.5932
 SCF Error: norm([F,P])=      0.000035164788, max([F,P])=      0.000005925892
 orbitals (Q,E):
 ---------------
 A :17...27          ( 2.00    -0.2077)  ( 2.00    -0.1910)  ( 2.00    -0.1745)  ( 2.00    -0.1227)
                     ( 2.00    -0.0695)  ( 2.00    -0.0663)  ( 2.00    -0.0619)  ( 2.00    -0.0539)
                     ( 2.00    -0.0503)  ( 2.00    -0.0412)  ( 0.00     0.1187)

 CYCLE   12
  SDIIS (wt  1.000):  0.0000 -0.0000  0.0001  0.0007  0.0026  0.0066  0.0191  0.0755  0.2459  0.6494
  DIIS coefficients:  0.0000 -0.0000  0.0001  0.0007  0.0026  0.0066  0.0191  0.0755  0.2459  0.6494
 SCF Error: norm([F,P])=      0.000009365343, max([F,P])=      0.000002172830
 orbitals (Q,E):
 ---------------
 A :17...27          ( 2.00    -0.2077)  ( 2.00    -0.1910)  ( 2.00    -0.1745)  ( 2.00    -0.1227)
                     ( 2.00    -0.0695)  ( 2.00    -0.0663)  ( 2.00    -0.0619)  ( 2.00    -0.0539)
                     ( 2.00    -0.0503)  ( 2.00    -0.0412)  ( 0.00     0.1187)

 CYCLE   13
  SDIIS (wt  1.000): -0.0000  0.0000  0.0002  0.0005  0.0019  0.0067  0.0327  0.1148  0.3537  0.4895
  DIIS coefficients: -0.0000  0.0000  0.0002  0.0005  0.0019  0.0067  0.0327  0.1148  0.3537  0.4895
 SCF Error: norm([F,P])=      0.000003095180, max([F,P])=      0.000000379332
 orbitals (Q,E):
 ---------------
 A :17...27          ( 2.00    -0.2077)  ( 2.00    -0.1910)  ( 2.00    -0.1745)  ( 2.00    -0.1227)
                     ( 2.00    -0.0695)  ( 2.00    -0.0663)  ( 2.00    -0.0619)  ( 2.00    -0.0539)
                     ( 2.00    -0.0503)  ( 2.00    -0.0412)  ( 0.00     0.1187)

 SCF CONVERGED

 CYCLE   14
 ***************************************************************************************************



                                                *******************
                                                *  R E S U L T S  *
                                                *******************
  
 *** Using FIT density in Focky
  SDIIS (wt  1.000):  0.0000  0.0000  0.0001  0.0004  0.0015  0.0078  0.0265  0.0868  0.1936  0.6831
  DIIS coefficients:  0.0000  0.0000  0.0001  0.0004  0.0015  0.0078  0.0265  0.0868  0.1936  0.6831
 SCF Error: norm([F,P])=      0.000000477641, max([F,P])=      0.000000077703

 Scaled ZORA Orbital Energies, per Irrep and Spin:
 =================================================
                        Occup              E (au)              E (eV)       Diff (eV) with prev. cycle
                        -----      --------------------        ------       --------------------------
 A
              17        2.000     -0.20771764274713E+00        -5.652               7.72E-07
              18        2.000     -0.19097617565316E+00        -5.197               1.02E-06
              19        2.000     -0.17453875997400E+00        -4.749               8.86E-07
              20        2.000     -0.12266728179560E+00        -3.338               1.35E-06
              21        2.000     -0.69531564180173E-01        -1.892               8.61E-07
              22        2.000     -0.66256254210622E-01        -1.803               1.87E-06
              23        2.000     -0.61924184111683E-01        -1.685               1.13E-06
              24        2.000     -0.53895917486070E-01        -1.467               3.95E-07
              25        2.000     -0.50285457046005E-01        -1.368               8.05E-07
              26        2.000     -0.41193449594870E-01        -1.121               3.81E-07
              27        0.000      0.11866460500339E+00         3.229
              28        0.000      0.13273485743234E+00         3.612
              29        0.000      0.16426555170204E+00         4.470
              30        0.000      0.17785475883826E+00         4.840
              31        0.000      0.18640286250957E+00         5.072
              32        0.000      0.21667216768552E+00         5.896
              33        0.000      0.23484433657271E+00         6.390
              34        0.000      0.27424025825659E+00         7.462
              35        0.000      0.28895654340522E+00         7.863
              36        0.000      0.29689671928904E+00         8.079
  
 HOMO :       26 A                -0.41193449594870E-01
 LUMO :       27 A                 0.11866460500339E+00
  


 All Electron Calculation, thus no Orbital Energies of the Core Orbitals are calculated


 Fit test: (difference of exact and fit density, squared integrated, result summed over spins)
         Sum-of-Fragments:                             0.00015031143905
         Orthogonalized Fragments:                     0.00015309305122
         SCF:                                          0.00015284423238



 ==========================
 Electron Density at Nuclei
 ==========================
  
 The electron density is calculated at points on a small sphere around the center of a nucleus.
 The printed electron density is the average electron density on these points.
 The radius of the sphere is the printed approximate finite nuclear radius.
 Note: ZORA-4 density is used, which includes small component density

         Atom        Nuclear Radius (Angstrom)             Electron Density (a.u.)
         ----        -------------------------             -----------------------
     1)   F                 0.0000361580                              450.61759
     2)   C                 0.0000320678                              127.40905
     3)   H                 0.0000181514                                0.51973
     4)   Cl                0.0000426624                             3312.13488
     5)   C                 0.0000320678                              127.02071
     6)   H                 0.0000181514                                0.52034
     7)   H                 0.0000181514                                0.52310
     8)   H                 0.0000181514                                0.52060
     9)   N                 0.0000333706                              206.04420
    10)   H                 0.0000181514                                0.51476
    11)   H                 0.0000181514                                0.49069



 =======================================
 M U L L I K E N   P O P U L A T I O N S
 =======================================
  
 The survey below gives for each atom:
 a) the total charge (Z minus electrons)
 b) the net spin polarization (nr of electrons spin-A minus spin-B)
 c) for each spin the atomic electron valence density (integrated) per L-value.

 Atom              Charge    Spin density          S         P         D         F
 ----              ------    ------------       ------    ------    ------    ------
 1 F              -0.6676                       4.0174    5.6416    0.0080    0.0005
 2 C               0.6205                       3.0586    2.2593    0.0583    0.0034
 3 H              -0.2275                       1.1415    0.0797    0.0063    0.0000
 4 Cl             -0.5707                       5.9711   11.5736    0.0207    0.0052
 5 C               0.6410                       2.8945    2.3822    0.0777    0.0046
 6 H              -0.1684                       1.0776    0.0841    0.0066    0.0000
 7 H              -0.1741                       1.0822    0.0852    0.0068    0.0000
 8 H              -0.2436                       1.1604    0.0773    0.0060    0.0000
 9 N              -0.1363                       3.3789    3.7093    0.0450    0.0031
 10 H             -0.0895                       0.9583    0.1222    0.0089    0.0000
 11 H              0.0162                       0.8350    0.1388    0.0100    0.0000

 Populations of individual BAS functions
 ----------------------------------------
 1 F            0.5912  1.3855  1.0834  0.9093  0.0480  0.3614  0.4012  0.4037  0.8752  0.9226
                0.9127  0.5144  0.6144  0.6360  0.0077  0.0015  0.0011 -0.0012  0.0013 -0.0024
                0.0040  0.0022  0.0024 -0.0017  0.0000 -0.0021 -0.0014 -0.0004 -0.0007 -0.0019
 2 C            0.5066  1.4831  0.1526  0.9597 -0.0436 -0.0235 -0.1519 -0.2083  0.4862  0.7956
                0.8477  0.0905  0.2007  0.2222 -0.0014  0.0097  0.0039  0.0204  0.0126  0.0131
               -0.0000 -0.0034 -0.0026  0.0013  0.0001 -0.0004  0.0054  0.0024 -0.0006  0.0011
 5 C            0.5073  1.4822  0.0319  0.9138 -0.0408 -0.2035 -0.1181 -0.1499  0.8113  0.7496
                0.7355  0.1953  0.1819  0.1801  0.0078  0.0110  0.0125  0.0179  0.0136  0.0151
               -0.0014 -0.0019  0.0000  0.0011  0.0005  0.0015  0.0044  0.0006 -0.0012  0.0009
 3 H            0.2475  0.5753  0.3188  0.0368  0.0226  0.0203  0.0122  0.0018  0.0018 -0.0028
                0.0002 -0.0069
 6 H            0.1873  0.5558  0.3345  0.0275  0.0228  0.0338 -0.0065  0.0005  0.0011 -0.0012
                0.0017  0.0109
 7 H            0.2155  0.5305  0.3362  0.0303  0.0231  0.0318 -0.0061  0.0007  0.0012 -0.0001
                0.0015  0.0096
 8 H            0.3146  0.5182  0.3276  0.0274  0.0208  0.0291 -0.0025  0.0007  0.0016 -0.0039
                0.0012  0.0090
 10 H           0.0730  0.5500  0.3353  0.0386  0.0380  0.0456 -0.0061  0.0031  0.0001  0.0151
                0.0031 -0.0063
 11 H           0.0122  0.4761  0.3467  0.0462  0.0492  0.0434  0.0115  0.0023  0.0025 -0.0016
                0.0011 -0.0058
 4 Cl           0.5878  1.3676  1.7512  0.2144  0.7364  0.7406  0.7407  1.2582  1.2527  1.2523
                0.6320  0.9975  0.4206  0.2593  0.3155  0.3213  0.9209  1.0273  1.0242  0.4572
                0.6204  0.6467  0.0189  0.0047  0.0044 -0.0025  0.0002 -0.0050  0.0151  0.0089
                0.0079 -0.0050  0.0001 -0.0077 -0.0050 -0.0008 -0.0024 -0.0059
 9 N            0.5502  1.4306 -0.0336  0.9980  0.4337  0.1930  0.1718  0.2045  0.8279  0.8104
                0.8039  0.2059  0.0453  0.4466  0.0082  0.0055  0.0075  0.0157  0.0061  0.0021
                0.0008 -0.0006  0.0000  0.0006  0.0003 -0.0007  0.0037  0.0006 -0.0018  0.0002

 Gross Charges per Atom (Z minus electrons)
 ==========================================
            -0.6676    0.6205   -0.2275   -0.5707    0.6410   -0.1684   -0.1741   -0.2436   -0.1363   -0.0895
             0.0162
 Net Total: -1.00000000


 Atom-Atom Population Matrix (off-diagonal elements not doubled)
 ===============================================================

     1 :     9.6204
     2 :     0.0672    4.1682
     3 :     0.0062   -0.0415    1.1898
     4 :     0.0043    0.0878   -0.0224   17.6574
     5 :     0.0003    0.4115    0.3072   -0.0411    4.1176
     6 :    -0.0154    0.3895   -0.0132   -0.0544   -0.0367    0.9803
     7 :    -0.0193    0.3848    0.0159   -0.0748   -0.0248   -0.0868    1.0287
     8 :    -0.0155   -0.0388   -0.1550    0.0153    0.3607    0.0271   -0.0621    1.2527
     9 :    -0.0371   -0.0433   -0.0522    0.0019    0.3579   -0.0041    0.0077   -0.0766    6.1128
    10 :     0.0070    0.0072   -0.0183   -0.0021   -0.0482   -0.0008   -0.0041   -0.0397    0.4277    0.8287
    11 :     0.0493   -0.0131    0.0110   -0.0012   -0.0454   -0.0171    0.0089   -0.0245    0.4417   -0.0677
             0.6419


 Frag-Frag Population Matrix (off-diagonal elements not doubled)
 ===============================================================

     1 :     9.6204
     2 :     0.0471   42.2853



 =================================================
 H I R S H F E L D   C H A R G E   A N A L Y S I S
 =================================================
  
 For each fragment: the (numerical) integral of rho(scf) * rho(fragment)/rho(sum-of-fragments)
 (nuclear charges are included, electrons are counted negative)

 The fragments and their ordering are defined in the early G E O M E T R Y output section.
 If you use single-atom fragments, this usually implies that all atoms of the same
 chemical type are grouped together. This may not be the order in which you listed them
 in the input file!

  Fragment                       Charge
 ------------------------------------------
    1  fA                       -0.7567
    2  fB                       -0.2433

 Sum of these charges =         -1.00000493
 (accuracy NumInt/Tails)



 =============================
 V O R O N O I   C H A R G E S
 =============================
  
 For each atom: the (numerical) integral of the total electronic charge density in its Voronoi cell,
 i.e. the region of space that is closer to that atom than to any other atom.
 (cf. Wigner-Seitz cells in crystals)

 Within the Voronoi cell the subintegrals over the atomic sphere and the remaining part are evaluated
 separately to give the numbers of electrons (negative charge) in these regions.
 The net total charge in the cell (including the nuclear charge) is also given.

 Values are provided for
    a) the Initial (sum-of-fragments) density
    b) the Orthogonalized-Fragments density
    c) the SCF density
    d) the Voronoi Deformation Density (VDD): the difference SCF-Initial for the complete atomic cell

  Atom                Initial                    OrthFrag                   SCF
             Sphere RestCell NetTotal   Sphere RestCell NetTotal   Sphere RestCell NetTotal      VDD
 -------     ------------------------   ------------------------   ------------------------    -----
    1 F      -5.640   -4.119   -0.759   -5.721   -4.092   -0.813   -5.655   -3.889   -0.545    0.214
    2 C      -2.102   -2.850    1.048   -2.104   -2.834    1.061   -2.100   -2.789    1.112    0.064
    3 H      -0.110   -1.411   -0.521   -0.110   -1.413   -0.523   -0.112   -1.465   -0.577   -0.057
    4 Cl    -11.009   -6.044   -0.053  -11.011   -6.060   -0.071  -11.015   -6.269   -0.283   -0.230
    5 C      -2.108   -2.812    1.080   -2.108   -2.811    1.081   -2.107   -2.796    1.097    0.017
    6 H      -0.111   -1.421   -0.531   -0.112   -1.406   -0.518   -0.112   -1.415   -0.527    0.004
    7 H      -0.112   -1.441   -0.552   -0.113   -1.422   -0.535   -0.113   -1.426   -0.539    0.013
    8 H      -0.113   -1.390   -0.502   -0.113   -1.381   -0.494   -0.113   -1.393   -0.506   -0.004
    9 N      -2.348   -3.857    0.795   -2.350   -3.869    0.782   -2.349   -3.887    0.764   -0.031
   10 H      -0.111   -1.327   -0.437   -0.111   -1.329   -0.439   -0.112   -1.381   -0.493   -0.056
   11 H      -0.111   -1.455   -0.566   -0.111   -1.419   -0.531   -0.106   -1.395   -0.501    0.065
 ---------------------------------------------------------------------------------------------------
 Total NetCharge:              -1.000                     -1.000                     -1.000    0.000
 (accuracy NumInt/Tails)

 Remark: the 'NetTotal' Voronoi charges often do not match the Mulliken and/or Hirshfeld charges very
 well. This is caused by the fact that chemically different atoms are not treated in accordance with
 their relative sizes. (Voronoi cells are defined by boundary planes halfway between the atoms.)
 However, the CHANGES in charge, comparing 'Initial' to 'SCF' for instance, do give a fair indication
 of the flow of charge caused by the relaxation from sum-of-fragments to self-consistency.

 Warning: the absolute accuracy of the VDD charges obtained using the Fuzzy Cells (Becke) integration
 scheme is much poorer than the one obtained with an 'equivalent' Voronoi integration grid. 



 =================================================================
 M U L T I P O L E   D E R I V E D   C H A R G E   A N A L Y S I S
 =================================================================

 This charge analysis uses the atomic multipoles (obtained from the fitted density) up to some level X,
 and reconstructs these multipoles exactly (up to level X) by distributing charges over all atoms.
 This is achieved by using Lagrange multipliers and a weight function to keep the multipoles local.

 Dummy atoms can be included (by setting INCDUM in MDC-block to 1) to obtain a fractional charge.
 This is generally useful and necessary only for small symmetrical molecules, when there are not
 enough degrees of freedom to reconstruct the multipoles.

 Since the atomic multipoles are reconstructed up to level X,
 the molecular multipoles are represented also up to level X.
 The recommended level is to reconstruct up to quadrupole : -> MDC-q charges.

 See: M. Swart, P.Th. van Duijnen, J.G. Snijders, J.Comput.Chem., (2001), p. 79-88.

 ------------------------------------------------------------- 
 Atomic electronic multipole moments from SCF equations (a.u.)
 ------------------------------------------------------------- 

   atom        charge        dip-x     dip-y     dip-z      quad-xx   quad-xy   quad-xz   quad-yy   quad-yz   quad-zz
 --------------------------------------------------------------------------------------------------------------------
    1 F     -0.662695     0.145373  0.062859 -0.051081     0.204117  0.005568 -0.001916 -0.053438 -0.117694 -0.150679
    2 C      0.225075    -0.367101  0.033767 -0.022421    -0.391173  0.109853 -0.016218  0.175710 -0.009876  0.215463
    3 H     -0.112652    -0.068049  0.026646 -0.013481     0.090595  0.104012 -0.001074 -0.024200 -0.009549 -0.066395
    4 Cl    -0.319512    -0.683112  0.253475 -0.044464     1.265548 -0.358840  0.068448 -0.374096 -0.029619 -0.891451
    5 C      0.245311    -0.078917  0.032099 -0.006251     0.010540  0.103779  0.009693  0.020140 -0.021404 -0.030681
    6 H     -0.065924    -0.072254  0.014859  0.002009    -0.142745  0.030490  0.030403  0.001449  0.086358  0.141296
    7 H     -0.068514    -0.078769  0.015641 -0.004518    -0.142629  0.043133 -0.046649  0.001054 -0.079406  0.141575
    8 H     -0.094737    -0.009902 -0.028065 -0.037981    -0.029083 -0.016495 -0.058682 -0.037723  0.026512  0.066806
    9 N     -0.120752    -0.318410  0.118420  0.516998     0.121191  0.105514  0.399848  0.608851 -0.225791 -0.730042
   10 H     -0.030426    -0.001546  0.024711  0.009698    -0.072823 -0.008755  0.046382  0.198554 -0.004907 -0.125731
   11 H      0.004827    -0.017360 -0.029902  0.021936     0.101220  0.056687  0.022530  0.008997 -0.041212 -0.110217

 --------------------------------------- 
 Multipole derived atomic charges (a.u.)
 --------------------------------------- 

 The MDC-m charges are just the Monopole terms in the multipole expansion, while for the MDC-d charges
 also the Dipoles are reconstructed. The usually preferred charges are the MDC-q charges.
 These reconstruct the Monopoles, Dipoles and Quadrupoles (both atomic AND molecular).

        Atom    Level:     MDC-m        MDC-d        MDC-q
 ---------------------------------------------------------
     1     F           -0.662695    -0.615264    -0.635987
[...]
                                    3.36%    43 A               9.563  0.00     2 fB
                                    3.29%    40 A               8.615  0.00     2 fB
                                    3.03%     3 A               2.943  2.00     1 fA
                                    2.86%    25 A               0.469  0.00     2 fB
                                    2.49%    34 A               5.903  0.00     2 fB
                                    2.48%    17 A              -9.760  2.00     2 fB
                                    2.34%    38 A               8.176  0.00     2 fB
                                    2.09%    14 A             -12.305  2.00     2 fB
                                    1.63%    16 A             -10.303  2.00     2 fB
                                    1.37%    33 A               5.700  0.00     2 fB
                                    1.23%    24 A               0.205  0.00     2 fB
                                    1.21%     9 A             -22.646  2.00     2 fB
                                    1.17%    56 A              18.116  0.00     2 fB
                                    1.17%    52 A              13.902  0.00     2 fB
                                   -1.14%    31 A               4.120  0.00     2 fB
       0.05991       200 A         27.14%    21 A              -6.106  2.00     2 fB
                                   15.01%    27 A               1.428  0.00     2 fB
                                   10.09%    20 A              -6.588  2.00     2 fB
                                    5.65%    36 A               6.701  0.00     2 fB
                                    5.46%     7 A              22.094  0.00     1 fA
                                    4.98%    17 A              -9.760  2.00     2 fB
                                    3.90%     3 A               2.943  2.00     1 fA
                                    3.56%    18 A              -8.098  2.00     2 fB
                                    3.30%    40 A               8.615  0.00     2 fB
                                    3.22%    25 A               0.469  0.00     2 fB
                                    3.13%    43 A               9.563  0.00     2 fB
                                   -2.92%     6 A               7.775  0.00     1 fA
                                    2.69%    34 A               5.903  0.00     2 fB
                                    2.39%    38 A               8.176  0.00     2 fB
                                    1.98%    33 A               5.700  0.00     2 fB
                                    1.93%    24 A               0.205  0.00     2 fB
                                    1.14%    11 A              42.594  0.00     1 fA
                                    1.14%    56 A              18.116  0.00     2 fB
      -0.05857         6 A         23.97%    20 A              -6.588  2.00     2 fB
                                   18.00%    39 A               8.401  0.00     2 fB
                                   16.21%    19 A              -6.644  2.00     2 fB
                                    6.37%    29 A               3.233  0.00     2 fB
                                    3.60%    17 A              -9.760  2.00     2 fB
                                    3.37%    33 A               5.700  0.00     2 fB
                                    2.55%    37 A               7.671  0.00     2 fB
                                    2.30%    21 A              -6.106  2.00     2 fB
                                    1.91%     8 A              22.094  0.00     1 fA
                                    1.84%    25 A               0.469  0.00     2 fB
                                    1.81%    28 A               2.024  0.00     2 fB
                                    1.68%     5 A               2.943  2.00     1 fA
                                    1.52%    27 A               1.428  0.00     2 fB
                                    1.27%    42 A               9.360  0.00     2 fB
                                    1.23%    38 A               8.176  0.00     2 fB
                                    1.20%    16 A             -10.303  2.00     2 fB
                                    1.17%    26 A               0.937  0.00     2 fB
                                    1.10%    24 A               0.205  0.00     2 fB
                                    1.08%    12 A             -15.408  2.00     2 fB
       0.05857       199 A         22.94%    20 A              -6.588  2.00     2 fB
                                   19.38%    39 A               8.401  0.00     2 fB
                                   15.71%    19 A              -6.644  2.00     2 fB
                                    7.24%    29 A               3.233  0.00     2 fB
                                    4.79%    17 A              -9.760  2.00     2 fB
                                    3.78%    33 A               5.700  0.00     2 fB
                                    2.82%    37 A               7.671  0.00     2 fB
                                    2.17%    21 A              -6.106  2.00     2 fB
                                    1.84%    28 A               2.024  0.00     2 fB
                                    1.76%    27 A               1.428  0.00     2 fB
                                    1.66%    25 A               0.469  0.00     2 fB
                                    1.65%     8 A              22.094  0.00     1 fA
                                    1.31%    42 A               9.360  0.00     2 fB
                                    1.21%    38 A               8.176  0.00     2 fB
                                    1.05%    14 A             -12.305  2.00     2 fB
                                    1.04%    26 A               0.937  0.00     2 fB
      -0.05581         7 A         21.43%    19 A              -6.644  2.00     2 fB
                                   14.09%    20 A              -6.588  2.00     2 fB
                                   10.58%    38 A               8.176  0.00     2 fB
                                    8.28%     7 A              22.094  0.00     1 fA
                                    5.90%    39 A               8.401  0.00     2 fB
                                    5.35%    23 A              -0.579  0.00     2 fB
                                    4.53%    21 A              -6.106  2.00     2 fB
                                    4.31%    33 A               5.700  0.00     2 fB
                                    3.14%    42 A               9.360  0.00     2 fB
                                    2.20%    13 A             -12.792  2.00     2 fB
                                    2.06%    24 A               0.205  0.00     2 fB
                                    1.85%     8 A              22.094  0.00     1 fA
                                    1.64%    32 A               4.624  0.00     2 fB
                                    1.53%     9 A              22.094  0.00     1 fA
                                    1.47%    18 A              -8.098  2.00     2 fB
                                    1.43%     3 A               2.943  2.00     1 fA
                                    1.39%    45 A              10.377  0.00     2 fB
                                    1.24%    25 A               0.469  0.00     2 fB
                                   -1.11%     6 A               7.775  0.00     1 fA
       0.05581       198 A         19.66%    19 A              -6.644  2.00     2 fB
                                   12.87%    20 A              -6.588  2.00     2 fB
                                   11.14%    38 A               8.176  0.00     2 fB
                                    6.18%    39 A               8.401  0.00     2 fB
                                    5.21%     7 A              22.094  0.00     1 fA
                                    5.12%    21 A              -6.106  2.00     2 fB
                                    4.70%    23 A              -0.579  0.00     2 fB
                                    4.46%    18 A              -8.098  2.00     2 fB
                                    4.23%    33 A               5.700  0.00     2 fB
                                   -3.59%     6 A               7.775  0.00     1 fA
                                    3.24%    42 A               9.360  0.00     2 fB
                                    2.86%    13 A             -12.792  2.00     2 fB
                                    2.83%    24 A               0.205  0.00     2 fB
                                    2.69%    15 A             -10.634  2.00     2 fB
                                    1.84%     3 A               2.943  2.00     1 fA
                                    1.73%    32 A               4.624  0.00     2 fB
                                    1.32%    45 A              10.377  0.00     2 fB
                                    1.13%    10 A             -19.663  2.00     2 fB
                                    1.10%    11 A              42.594  0.00     1 fA
                                    1.02%    12 A             -15.408  2.00     2 fB
      -0.05074         8 A         14.00%    13 A             -12.792  2.00     2 fB
                                   10.26%     7 A              22.094  0.00     1 fA
                                    9.22%    24 A               0.205  0.00     2 fB
                                    8.93%     6 A               7.775  0.00     1 fA
                                    8.67%    17 A              -9.760  2.00     2 fB
                                    7.88%    16 A             -10.303  2.00     2 fB
                                    6.72%    19 A              -6.644  2.00     2 fB
                                    5.20%     3 A               2.943  2.00     1 fA
                                    4.67%    38 A               8.176  0.00     2 fB
                                   -4.30%    23 A              -0.579  0.00     2 fB
                                    3.82%     8 A              22.094  0.00     1 fA
                                    2.55%    35 A               6.350  0.00     2 fB
                                    2.54%    26 A               0.937  0.00     2 fB
                                    2.42%    27 A               1.428  0.00     2 fB
                                    1.79%    28 A               2.024  0.00     2 fB
                                    1.79%    34 A               5.903  0.00     2 fB
                                    1.39%    18 A              -8.098  2.00     2 fB
                                    1.19%    52 A              13.902  0.00     2 fB
                                    1.13%     5 A               2.943  2.00     1 fA
                                    1.10%     2 A             -15.175  2.00     1 fA
                                    1.04%    15 A             -10.634  2.00     2 fB
       0.05074       197 A         22.64%    13 A             -12.792  2.00     2 fB
                                   13.83%    17 A              -9.760  2.00     2 fB
                                    8.36%    24 A               0.205  0.00     2 fB
                                    6.90%     7 A              22.094  0.00     1 fA
                                    5.54%    19 A              -6.644  2.00     2 fB
                                    4.97%    38 A               8.176  0.00     2 fB
                                    4.04%    27 A               1.428  0.00     2 fB
                                   -3.95%    23 A              -0.579  0.00     2 fB
                                    3.87%    14 A             -12.305  2.00     2 fB
                                    3.49%    26 A               0.937  0.00     2 fB
                                    3.05%     6 A               7.775  0.00     1 fA
                                    3.00%    35 A               6.350  0.00     2 fB
                                    2.48%    16 A             -10.303  2.00     2 fB
                                    2.33%    28 A               2.024  0.00     2 fB
                                    2.23%     8 A              22.094  0.00     1 fA
                                    2.20%    15 A             -10.634  2.00     2 fB
                                    1.81%    11 A              42.594  0.00     1 fA
                                    1.69%    25 A               0.469  0.00     2 fB
                                    1.34%    34 A               5.903  0.00     2 fB
                                    1.32%     3 A               2.943  2.00     1 fA
                                    1.12%    30 A               3.421  0.00     2 fB
                                   -1.02%     2 A             -15.175  2.00     1 fA
 Mulliken charges used for AMS results%charges...


    =====================
     CALCULATION RESULTS
    =====================

Energy (hartree)            -0.07621966


--------------
Atomic charges
--------------
  Index   Atom    Charge
      1      F   -0.6676
      2      C    0.6205
      3      H   -0.2275
      4     Cl   -0.5707
      5      C    0.6410
      6      H   -0.1684
      7      H   -0.1741
      8      H   -0.2436
      9      N   -0.1363
     10      H   -0.0895
     11      H    0.0162


Dipole moment vector    (Debye):    -3.91526585    0.34778541    1.35025804
              magnitude (Debye):     4.15613500


-----------------------
Molecular orbitals info
-----------------------
n orbitals:              204
n spin:                    1

Note: only printing virtual orbitals with
      energy smaller than HOMO + 100. eV

HOMO (eV):              -1.1209
LUMO (eV):               3.2290
HOMO-LUMO gap (eV):      4.3500

   Index   Energy (eV)    Occupation
     137       97.7836         0.000       
     136       96.8606         0.000       
     135       93.0283         0.000       
     134       91.3749         0.000       
     133       88.4830         0.000       
     132       88.1581         0.000       
     131       86.8790         0.000       
     130       85.9707         0.000       
     129       85.0831         0.000       
     128       84.3853         0.000       
     127       84.2186         0.000       
     126       82.8271         0.000       
     125       81.9717         0.000       
     124       81.4823         0.000       
     123       80.7355         0.000       
     122       78.8353         0.000       
     121       78.3692         0.000       
     120       76.9394         0.000       
     119       75.0317         0.000       
     118       74.1904         0.000       
     117       73.8348         0.000       
     116       73.0332         0.000       
     115       71.5773         0.000       
     114       70.5428         0.000       
     113       67.9647         0.000       
     112       66.5557         0.000       
     111       66.0363         0.000       
     110       65.6665         0.000       
     109       65.1984         0.000       
     108       62.2557         0.000       
     107       61.4131         0.000       
     106       59.5821         0.000       
     105       59.0848         0.000       
     104       58.7410         0.000       
     103       57.4540         0.000       
     102       56.2759         0.000       
     101       53.8400         0.000       
     100       52.9749         0.000       
      99       52.7170         0.000       
      98       50.5116         0.000       
      97       49.6320         0.000       
      96       48.2951         0.000       
      95       47.3942         0.000       
      94       46.1106         0.000       
      93       45.5753         0.000       
      92       44.2827         0.000       
      91       43.2211         0.000       
      90       42.6430         0.000       
      89       42.3632         0.000       
      88       41.7469         0.000       
      87       40.9757         0.000       
      86       40.6925         0.000       
      85       40.2691         0.000       
      84       39.7261         0.000       
      83       39.3547         0.000       
      82       38.7281         0.000       
      81       38.6144         0.000       
      80       38.1521         0.000       
      79       37.3768         0.000       
      78       36.8490         0.000       
      77       36.5383         0.000       
      76       35.7621         0.000       
      75       35.3268         0.000       
      74       33.9192         0.000       
      73       32.9127         0.000       
      72       32.3123         0.000       
      71       31.8854         0.000       
      70       31.1287         0.000       
      69       30.6479         0.000       
      68       29.3474         0.000       
      67       28.7984         0.000       
      66       27.0900         0.000       
      65       26.4613         0.000       
      64       25.3543         0.000       
      63       24.0033         0.000       
      62       22.9803         0.000       
      61       21.8245         0.000       
      60       21.0517         0.000       
      59       20.0738         0.000       
      58       19.2092         0.000       
      57       18.2253         0.000       
      56       17.8274         0.000       
      55       17.6280         0.000       
      54       16.7563         0.000       
      53       16.5744         0.000       
      52       15.8668         0.000       
      51       15.4504         0.000       
      50       15.1551         0.000       
      49       14.4492         0.000       
      48       14.0232         0.000       
      47       13.9661         0.000       
      46       13.1824         0.000       
      45       12.9901         0.000       
      44       12.7004         0.000       
      43       12.5463         0.000       
      42       12.2705         0.000       
      41       11.7325         0.000       
      40       10.6680         0.000       
      39       10.5905         0.000       
      38        9.6244         0.000       
      37        9.0202         0.000       
      36        8.0790         0.000       
      35        7.8629         0.000       
      34        7.4625         0.000       
      33        6.3904         0.000       
      32        5.8959         0.000       
      31        5.0723         0.000       
      30        4.8397         0.000       
      29        4.4699         0.000       
      28        3.6119         0.000       
      27        3.2290         0.000 < LUMO
      26       -1.1209         2.000 < HOMO
      25       -1.3683         2.000       
      24       -1.4666         2.000       
      23       -1.6850         2.000       
      22       -1.8029         2.000       
      21       -1.8921         2.000       
      20       -3.3379         2.000       
      19       -4.7494         2.000       
      18       -5.1967         2.000       
      17       -5.6523         2.000       
      16       -7.1799         2.000       
      15       -7.8074         2.000       
      14      -10.2504         2.000       
      13      -12.8671         2.000       
      12      -14.4947         2.000       
      11      -17.5095         2.000       
      10      -20.2976         2.000       
       9     -183.9461         2.000       
       8     -183.9480         2.000       
       7     -184.0897         2.000       
       6     -244.9429         2.000       
       5     -266.2825         2.000       
       4     -266.8238         2.000       
       3     -376.5189         2.000       
       2     -652.9431         2.000       
       1    -2744.2062         2.000       

AMS application finished. Exiting.
NORMAL TERMINATION
     Total cpu time:      44.44
  Total system time:       0.26
 Total elapsed time:      44.84
NORMAL TERMINATION
