srun: Job 663090 step creation temporarily disabled, retrying (Requested nodes are busy)
srun: Job 663090 step creation still disabled, retrying (Requested nodes are busy)
srun: Job 663090 step creation still disabled, retrying (Requested nodes are busy)
srun: Job 663090 step creation still disabled, retrying (Requested nodes are busy)
srun: Job 663090 step creation still disabled, retrying (Requested nodes are busy)
srun: Step created for StepId=663090.6

 *******************************************************************************
 *                                                                             *
 *  --------------------------------                                           *
 *   Amsterdam Modeling Suite (AMS)              2026.103                      *
 *  --------------------------------                                           *
 *                                               r260501 2026-05-01 873454b5   *
 *                                                                             *
 *                                                                             *
 *                              =================                              *
 *                              |               |                              *
 *                              |     A M S     |                              *
 *                              |               |                              *
 *                              =================                              *
 *                                                                             *
 *                                                                             *
 *   Online information and documentation:  https://www.scm.com/support/       *
 *   E-mail:  support@scm.com   info@scm.com                                   *
 *                                                                             *
 *   Scientific publications using AMS results must be properly referenced     *
 *   See the User Manuals (or the web site) for recommended citations          *
 *   The terms and conditions of the End User License Agreement apply to       *
 *   the use of AMS, https://www.scm.com/license-terms/                        *
 *                                                                             *
 **********************  x86_64_linux_intel / intelmpi  ************************
 
 Licensed to: Jong-June Jeon / University of Seoul 2026-06-02 13:44:15
 SCM User ID: u30731
  
 AMS 2026.103  RunTime: Jun03-2026 21:42:20  ShM Nodes: 1  Procs: 1

 AMS jobname: c2_fragB_ts
 AMS jobid  : 1155857253

 Start   directory: /gpfs/home1/yeseo1ee/projects/eda-asm-prediction/ADF_800/adf_outputs/batch_005/qmrxn20_sn2_A_D_A_B_A_A/
 Results directory: /gpfs/home1/yeseo1ee/projects/eda-asm-prediction/ADF_800/adf_outputs/batch_005/qmrxn20_sn2_A_D_A_B_A_A/c2_fragB_ts.results/
 Scratch directory: /tmp/amstmp_c2_fragB_ts_kid0.1155857253/

 RNG seed: -2127134556 1353629828 204995519 993333414 -485858958 -723529042 -457647507 1940483521



                      ************************************************************************
                      *  ADF 2026.103  RunTime: Jun03-2026 21:42:20  ShM Nodes: 1  Procs: 1  *
                      ************************************************************************
  

       ****************************
       * SINGLE POINT CALCULATION *
       ****************************

--------
Geometry
--------
Formula: C3H6FNO2
Atoms
  Index Symbol   x (angstrom)   y (angstrom)   z (angstrom)
      1      C     0.71797057    -0.19993888    -0.05086632
      2      H     1.74731540     1.28745178    -1.23570727
      3      F    -0.85236622    -0.25456148    -0.64791497
      4      C     1.07889980     1.23178813    -0.38279498
      5      H     1.05385821    -0.96580089    -0.72348723
      6      H     1.48554701     1.76355552     0.47152126
      7      C     0.32511987    -0.54226650     1.37132646
      8      H     1.16211320    -0.50889423     2.06277407
      9      H    -0.44748997     0.16462163     1.68173868
     10      H    -0.12500811    -1.53745636     1.38553245
     11      N    -0.14613446     2.05423091    -0.78130296
     12      O    -0.83945907     2.51114074     0.12748761
     13      O    -0.34290689     2.26621451    -1.97648617

Total System Charge              0.00000


----------------
ADF Engine Input
----------------
 
   Basis
     Type TZ2P
     Core None
   End
   XC
     GGA BLYP
     Dispersion GRIMME3 BJDAMP
   End
   Symmetry NOSYM
   NumericalQuality Normal
   Unrestricted No
   SCF
     Iterations 200
     Converge 1.0e-6
   End
   Save TAPE21
 

 Title: *** (NO TITLE) ***

 *** adf ***



 ===========================
 A T T A C H E D   F I L E S
 ===========================
  



 ===============================
 M O D E L   P A R A M E T E R S
 ===============================
  
 DENSITY FUNCTIONAL POTENTIAL (scf)
    LDA:                               Exchange only                           == Not Default ==
    Gradient Corrections:              Becke88 LYP                             == Not Default ==

 SPIN  (restricted / unrestr.)
    Molecule:                          Restricted                               
    Fragments:                         Restricted                               

 OTHER ASPECTS
    Relativistic Corrections:          scalar (ZORA,MAPA)                       

    Nuclear Charge Density Model:      Point Charge Nuclei                      
    Core Treatment:                    Frozen Orbital(s)                        

    Hyperfine or Zeeman Interaction:   ---                                      

 Settings for Grimme D3 dispersion correction

      damping                        BJ
      s6                          1.000
      s8                          2.700
      a1                          0.430
      a2                          4.236

 Other (technical) parameters

      alpha                      14.000
      version                         4
 


 Fragment File(s)
 ----------------
 C:
         file : /gpfs/home1/yeseo1ee/projects/eda-asm-prediction/ADF_800/adf_outputs/batch_005/qmrxn20_sn2_A_D_A_B_A_A/c2_fragB_ts.results/t21.50BA88D5.C
         jobid: 0
         title: Carbon (TZ2P)
 H:
         file : /gpfs/home1/yeseo1ee/projects/eda-asm-prediction/ADF_800/adf_outputs/batch_005/qmrxn20_sn2_A_D_A_B_A_A/c2_fragB_ts.results/t21.6F35CCAB.H
         jobid: 0
         title: Hydrogen (TZ2P)
 F:
         file : /gpfs/home1/yeseo1ee/projects/eda-asm-prediction/ADF_800/adf_outputs/batch_005/qmrxn20_sn2_A_D_A_B_A_A/c2_fragB_ts.results/t21.CCE1280.F
         jobid: 0
         title: Fluorine (TZ2P)
 N:
         file : /gpfs/home1/yeseo1ee/projects/eda-asm-prediction/ADF_800/adf_outputs/batch_005/qmrxn20_sn2_A_D_A_B_A_A/c2_fragB_ts.results/t21.44EAA48D.N
         jobid: 0
         title: Nitrogen (TZ2P)
 O:
         file : /gpfs/home1/yeseo1ee/projects/eda-asm-prediction/ADF_800/adf_outputs/batch_005/qmrxn20_sn2_A_D_A_B_A_A/c2_fragB_ts.results/t21.6E90ABAE.O
         jobid: 0
         title: Oxygen (TZ2P)



 ===============
 G E O M E T R Y  ***  3D  Molecule  ***
 ===============
  

 ATOMS
 =====                            X Y Z                    CHARGE
                                (Angstrom)             Nucl     +Core       At.Mass
                       --------------------------    ----------------       -------
    1  C               0.7180   -0.1999   -0.0509      6.00      6.00       12.0000
    2  H               1.7473    1.2875   -1.2357      1.00      1.00        1.0078
    3  F              -0.8524   -0.2546   -0.6479      9.00      9.00       18.9984
    4  C               1.0789    1.2318   -0.3828      6.00      6.00       12.0000
    5  H               1.0539   -0.9658   -0.7235      1.00      1.00        1.0078
    6  H               1.4855    1.7636    0.4715      1.00      1.00        1.0078
    7  C               0.3251   -0.5423    1.3713      6.00      6.00       12.0000
    8  H               1.1621   -0.5089    2.0628      1.00      1.00        1.0078
    9  H              -0.4475    0.1646    1.6817      1.00      1.00        1.0078
   10  H              -0.1250   -1.5375    1.3855      1.00      1.00        1.0078
   11  N              -0.1461    2.0542   -0.7813      7.00      7.00       14.0031
   12  O              -0.8395    2.5111    0.1275      8.00      8.00       15.9949
   13  O              -0.3429    2.2662   -1.9765      8.00      8.00       15.9949


 FRAGMENTS
 =========                                     Atoms in this Fragment     Cart. coord.s (Angstrom)
                                               -------------------------------------------------------
    1  C                                                 1  C            0.7180   -0.1999   -0.0509
    2  C                                                 4  C            1.0789    1.2318   -0.3828
    3  C                                                 7  C            0.3251   -0.5423    1.3713
    4  H                                                 2  H            1.7473    1.2875   -1.2357
    5  H                                                 5  H            1.0539   -0.9658   -0.7235
    6  H                                                 6  H            1.4855    1.7636    0.4715
    7  H                                                 8  H            1.1621   -0.5089    2.0628
    8  H                                                 9  H           -0.4475    0.1646    1.6817
    9  H                                                10  H           -0.1250   -1.5375    1.3855
   10  F                                                 3  F           -0.8524   -0.2546   -0.6479
   11  N                                                11  N           -0.1461    2.0542   -0.7813
   12  O                                                12  O           -0.8395    2.5111    0.1275
   13  O                                                13  O           -0.3429    2.2662   -1.9765


 Interatomic Distance Matrix (Angstrom)
 --------------------------------------

   1)     0.000
   2)     2.162   0.000
   3)     1.681   3.079   0.000
   4)     1.513   1.085   2.451   0.000
   5)     1.073   2.413   2.036   2.224   0.000
   6)     2.172   1.792   3.285   1.085   3.011   0.000
   7)     1.515   3.488   2.355   2.606   2.258   2.734   0.000
   8)     2.182   3.801   3.387   3.003   2.826   2.793   1.086   0.000
   9)     2.120   3.820   2.401   2.780   3.052   2.785   1.092   1.786   0.000
  10)     2.136   4.284   2.512   3.499   2.483   3.785   1.092   1.781   1.757   0.000
  11)     2.522   2.093   2.418   1.528   3.250   2.078   3.406   4.046   3.119   4.195
          0.000
  12)     3.132   3.170   2.872   2.362   4.049   2.466   3.497   4.108   2.842   4.299
          1.231   0.000
  13)     3.304   2.424   2.895   2.373   3.737   3.097   4.421   5.127   4.220   5.081
          1.230   2.176   0.000

 Min. Distance =    1.0732
 Max. Distance =    5.1266



 =====================================
 S Y M M E T R Y ,   E L E C T R O N S
 =====================================
  
 Symmetry: NOSYM

 Irreducible Representations, including subspecies
 -------------------------------------------------
 A


 Configuration of Valence Electrons
 ==================================
 ( determined in the SCF procedure )

 Total:   56

 Net Charge: 0 (Nuclei minus Electrons)

 Aufbau principle for MO occupations will be applied through SCF cycle no.     100
 Thereafter, the program will assign electrons to MOs that are spatially
 similar to the occupied MOs in a "reference" cycle ("KeepOrbitals").
 The reference cycle is always the PREVIOUS cycle: it will evolve with
 the SCF procedure.
 ***************************************************************************************************



                                      ****************************************
                                      *  B U I L D : (Fragments, Functions)  *
                                      ****************************************
  



 =======
 S F O s  ***  (Symmetrized Fragment Orbitals)  ***
 =======
  
 SFOs are linear combinations of (valence) Fragment Orbitals (FOs), such that the SFOs transform as the
 irreducible representations of the (molecular) symmetry group. Each SFO is therefore characterized by
 an irrep of the molecule and by a few (or only one) generating FOs.
 The SFOs constitute a symmetry-adapted basis for the Fock matrix. The MO eigenvector coefficients in
 this basis provide a direct interpretation of the MOs in terms of Frontier Orbital Theory.

 The SFOs are combined with auxiliary Core Functions (CFs) to ensure orthogonalization on the (frozen)
 Core Orbitals (COs). The Core-orthogonalized SFOs (CSFOs) constitute the true Fock basis.

 The FOs, and hence also the (C)SFOs are combinations of the elementary basis functions (BAS). The basis
 functions that participate in the description of the SFOs depend on the irrep. The indices of the
 involved functions are printed below for each irrep.
 (The complete list of primitive basis functions is printed in another section)

 Total nr. of (C)SFOs (summation over all irreps) :   248

 NOTE: a (C)SFO that is defined as a combination of more than one FO is usually NOT normalized.



                                       === A ===
 Nr. of SFOs :  248
 Cartesian basis functions that participate in this irrep (total number =   282) :
      1     2     3     4     5     6     9    12     7    10
     13     8    11    14    15    16    17    18    19    20
     21    22    23    24    25    26    27    28    29    30
     31    32    33    34    35    36    39    42    37    40
     43    38    41    44    45    46    47    48    49    50
     51    52    53    54    55    56    57    58    59    60
     61    62    63    64    65    66    69    72    67    70
     73    68    71    74    75    76    77    78    79    80
     81    82    83    84    85    86    87    88    89    90
     91    92    93    94    95    96    97    98    99   100
    101   102   103   104   105   106   107   108   109   110
    111   112   113   114   115   116   117   118   119   120
    121   122   123   124   125   126   127   128   129   130
    131   132   133   134   135   136   137   138   139   140
    141   142   143   144   145   146   147   148   149   150
    151   152   153   154   155   156   157   158   159   160
    161   162   163   164   165   166   167   168   171   174
    169   172   175   170   173   176   177   178   179   180
    181   182   183   184   185   186   187   188   189   190
    191   192   193   194   195   196   197   198   201   204
    199   202   205   200   203   206   207   208   209   210
    211   212   213   214   215   216   217   218   219   220
    221   222   223   224   225   226   227   228   231   234
    229   232   235   230   233   236   237   238   239   240
    241   242   243   244   245   246   247   248   249   250
    251   252   253   254   255   256   257   258   261   264
    259   262   265   260   263   266   267   268   269   270
    271   272   273   274   275   276   277   278   279   280
    281   282

    SFO  (index         Fragment          Generating    Expansion in Fragment Orbitals
  indx  incl.CFs)   Occup   Orb.Energy   FragmentType  Coeff.   Orbital     on Fragment
 --------------------------------------------------------------------------------------
     1       1      2.000     -10.066 au  C             1.00      1 S               1
                        (    -273.921 eV)
     2       2      2.000      -0.501 au  C             1.00      2 S               1
                        (     -13.620 eV)
     3       3       --         0.373 au  C             1.00      3 S               1
                        (      10.158 eV)
     4       4       --         5.405 au  C             1.00      4 S               1
                        (     147.073 eV)
     5       5       --        49.848 au  C             1.00      5 S               1
                        (    1356.422 eV)
     6       6      0.667      -0.193 au  C             1.00      1 P:x             1
                        (      -5.239 eV)
     7       7       --         0.169 au  C             1.00      2 P:x             1
                        (       4.589 eV)
     8       8       --         2.013 au  C             1.00      3 P:x             1
                        (      54.789 eV)
     9       9      0.667      -0.193 au  C             1.00      1 P:y             1
                        (      -5.239 eV)
    10      10       --         0.169 au  C             1.00      2 P:y             1
                        (       4.589 eV)
    11      11       --         2.013 au  C             1.00      3 P:y             1
                        (      54.789 eV)
    12      12      0.667      -0.193 au  C             1.00      1 P:z             1
                        (      -5.239 eV)
    13      13       --         0.169 au  C             1.00      2 P:z             1
                        (       4.589 eV)
    14      14       --         2.013 au  C             1.00      3 P:z             1
                        (      54.789 eV)
    15      15       --         1.243 au  C             1.00      1 D:z2            1
                        (      33.824 eV)
    16      16       --         1.243 au  C             1.00      1 D:x2-y2         1
                        (      33.824 eV)
    17      17       --         1.243 au  C             1.00      1 D:xy            1
                        (      33.824 eV)
    18      18       --         1.243 au  C             1.00      1 D:xz            1
                        (      33.824 eV)
    19      19       --         1.243 au  C             1.00      1 D:yz            1
                        (      33.824 eV)
    20      20       --         4.016 au  C             1.00      1 F:z3            1
                        (     109.271 eV)
    21      21       --         4.016 au  C             1.00      1 F:z             1
                        (     109.271 eV)
    22      22       --         4.016 au  C             1.00      1 F:xyz           1
                        (     109.271 eV)
    23      23       --         4.016 au  C             1.00      1 F:z2x           1
                        (     109.271 eV)
    24      24       --         4.016 au  C             1.00      1 F:z2y           1
                        (     109.271 eV)
    25      25       --         4.016 au  C             1.00      1 F:x             1
                        (     109.271 eV)
    26      26       --         4.016 au  C             1.00      1 F:y             1
                        (     109.271 eV)
    27      27      2.000     -10.066 au  C             1.00      1 S               2
                        (    -273.921 eV)
    28      28      2.000      -0.501 au  C             1.00      2 S               2
                        (     -13.620 eV)
    29      29       --         0.373 au  C             1.00      3 S               2
                        (      10.158 eV)
    30      30       --         5.405 au  C             1.00      4 S               2
                        (     147.073 eV)
    31      31       --        49.848 au  C             1.00      5 S               2
                        (    1356.422 eV)
    32      32      0.667      -0.193 au  C             1.00      1 P:x             2
                        (      -5.239 eV)
    33      33       --         0.169 au  C             1.00      2 P:x             2
                        (       4.589 eV)
    34      34       --         2.013 au  C             1.00      3 P:x             2
                        (      54.789 eV)
    35      35      0.667      -0.193 au  C             1.00      1 P:y             2
                        (      -5.239 eV)
    36      36       --         0.169 au  C             1.00      2 P:y             2
                        (       4.589 eV)
    37      37       --         2.013 au  C             1.00      3 P:y             2
                        (      54.789 eV)
    38      38      0.667      -0.193 au  C             1.00      1 P:z             2
                        (      -5.239 eV)
    39      39       --         0.169 au  C             1.00      2 P:z             2
                        (       4.589 eV)
    40      40       --         2.013 au  C             1.00      3 P:z             2
                        (      54.789 eV)
    41      41       --         1.243 au  C             1.00      1 D:z2            2
                        (      33.824 eV)
    42      42       --         1.243 au  C             1.00      1 D:x2-y2         2
                        (      33.824 eV)
    43      43       --         1.243 au  C             1.00      1 D:xy            2
                        (      33.824 eV)
    44      44       --         1.243 au  C             1.00      1 D:xz            2
                        (      33.824 eV)
    45      45       --         1.243 au  C             1.00      1 D:yz            2
                        (      33.824 eV)
    46      46       --         4.016 au  C             1.00      1 F:z3            2
                        (     109.271 eV)
    47      47       --         4.016 au  C             1.00      1 F:z             2
                        (     109.271 eV)
    48      48       --         4.016 au  C             1.00      1 F:xyz           2
                        (     109.271 eV)
    49      49       --         4.016 au  C             1.00      1 F:z2x           2
                        (     109.271 eV)
    50      50       --         4.016 au  C             1.00      1 F:z2y           2
                        (     109.271 eV)
    51      51       --         4.016 au  C             1.00      1 F:x             2
                        (     109.271 eV)
    52      52       --         4.016 au  C             1.00      1 F:y             2
                        (     109.271 eV)
    53      53      2.000     -10.066 au  C             1.00      1 S               3
                        (    -273.921 eV)
    54      54      2.000      -0.501 au  C             1.00      2 S               3
                        (     -13.620 eV)
    55      55       --         0.373 au  C             1.00      3 S               3
                        (      10.158 eV)
    56      56       --         5.405 au  C             1.00      4 S               3
                        (     147.073 eV)
    57      57       --        49.848 au  C             1.00      5 S               3
                        (    1356.422 eV)
    58      58      0.667      -0.193 au  C             1.00      1 P:x             3
                        (      -5.239 eV)
    59      59       --         0.169 au  C             1.00      2 P:x             3
                        (       4.589 eV)
    60      60       --         2.013 au  C             1.00      3 P:x             3
                        (      54.789 eV)
    61      61      0.667      -0.193 au  C             1.00      1 P:y             3
                        (      -5.239 eV)
    62      62       --         0.169 au  C             1.00      2 P:y             3
                        (       4.589 eV)
    63      63       --         2.013 au  C             1.00      3 P:y             3
                        (      54.789 eV)
    64      64      0.667      -0.193 au  C             1.00      1 P:z             3
                        (      -5.239 eV)
    65      65       --         0.169 au  C             1.00      2 P:z             3
                        (       4.589 eV)
    66      66       --         2.013 au  C             1.00      3 P:z             3
                        (      54.789 eV)
    67      67       --         1.243 au  C             1.00      1 D:z2            3
                        (      33.824 eV)
    68      68       --         1.243 au  C             1.00      1 D:x2-y2         3
                        (      33.824 eV)
    69      69       --         1.243 au  C             1.00      1 D:xy            3
                        (      33.824 eV)
    70      70       --         1.243 au  C             1.00      1 D:xz            3
                        (      33.824 eV)
    71      71       --         1.243 au  C             1.00      1 D:yz            3
                        (      33.824 eV)
    72      72       --         4.016 au  C             1.00      1 F:z3            3
                        (     109.271 eV)
    73      73       --         4.016 au  C             1.00      1 F:z             3
                        (     109.271 eV)
    74      74       --         4.016 au  C             1.00      1 F:xyz           3
                        (     109.271 eV)
    75      75       --         4.016 au  C             1.00      1 F:z2x           3
                        (     109.271 eV)
    76      76       --         4.016 au  C             1.00      1 F:z2y           3
                        (     109.271 eV)
    77      77       --         4.016 au  C             1.00      1 F:x             3
                        (     109.271 eV)
    78      78       --         4.016 au  C             1.00      1 F:y             3
                        (     109.271 eV)
    79      79      1.000      -0.240 au  H             1.00      1 S               4
                        (      -6.532 eV)
    80      80       --         0.088 au  H             1.00      2 S               4
                        (       2.394 eV)
    81      81       --         1.502 au  H             1.00      3 S               4
                        (      40.869 eV)
    82      82       --         0.406 au  H             1.00      1 P:x             4
                        (      11.051 eV)
    83      83       --         0.406 au  H             1.00      1 P:y             4
                        (      11.051 eV)
    84      84       --         0.406 au  H             1.00      1 P:z             4
                        (      11.051 eV)
    85      85       --         2.569 au  H             1.00      1 D:z2            4
                        (      69.917 eV)
    86      86       --         2.569 au  H             1.00      1 D:x2-y2         4
                        (      69.917 eV)
    87      87       --         2.569 au  H             1.00      1 D:xy            4
                        (      69.917 eV)
    88      88       --         2.569 au  H             1.00      1 D:xz            4
                        (      69.917 eV)
    89      89       --         2.569 au  H             1.00      1 D:yz            4
                        (      69.917 eV)
    90      90      1.000      -0.240 au  H             1.00      1 S               5
                        (      -6.532 eV)
    91      91       --         0.088 au  H             1.00      2 S               5
                        (       2.394 eV)
    92      92       --         1.502 au  H             1.00      3 S               5
                        (      40.869 eV)
    93      93       --         0.406 au  H             1.00      1 P:x             5
                        (      11.051 eV)
    94      94       --         0.406 au  H             1.00      1 P:y             5
                        (      11.051 eV)
    95      95       --         0.406 au  H             1.00      1 P:z             5
                        (      11.051 eV)
    96      96       --         2.569 au  H             1.00      1 D:z2            5
                        (      69.917 eV)
    97      97       --         2.569 au  H             1.00      1 D:x2-y2         5
                        (      69.917 eV)
    98      98       --         2.569 au  H             1.00      1 D:xy            5
                        (      69.917 eV)
    99      99       --         2.569 au  H             1.00      1 D:xz            5
                        (      69.917 eV)
   100     100       --         2.569 au  H             1.00      1 D:yz            5
                        (      69.917 eV)
   101     101      1.000      -0.240 au  H             1.00      1 S               6
                        (      -6.532 eV)
   102     102       --         0.088 au  H             1.00      2 S               6
                        (       2.394 eV)
   103     103       --         1.502 au  H             1.00      3 S               6
                        (      40.869 eV)
   104     104       --         0.406 au  H             1.00      1 P:x             6
                        (      11.051 eV)
   105     105       --         0.406 au  H             1.00      1 P:y             6
                        (      11.051 eV)
   106     106       --         0.406 au  H             1.00      1 P:z             6
                        (      11.051 eV)
   107     107       --         2.569 au  H             1.00      1 D:z2            6
                        (      69.917 eV)
   108     108       --         2.569 au  H             1.00      1 D:x2-y2         6
                        (      69.917 eV)
   109     109       --         2.569 au  H             1.00      1 D:xy            6
                        (      69.917 eV)
   110     110       --         2.569 au  H             1.00      1 D:xz            6
                        (      69.917 eV)
   111     111       --         2.569 au  H             1.00      1 D:yz            6
                        (      69.917 eV)
   112     112      1.000      -0.240 au  H             1.00      1 S               7
                        (      -6.532 eV)
   113     113       --         0.088 au  H             1.00      2 S               7
                        (       2.394 eV)
   114     114       --         1.502 au  H             1.00      3 S               7
                        (      40.869 eV)
   115     115       --         0.406 au  H             1.00      1 P:x             7
                        (      11.051 eV)
   116     116       --         0.406 au  H             1.00      1 P:y             7
                        (      11.051 eV)
   117     117       --         0.406 au  H             1.00      1 P:z             7
                        (      11.051 eV)
   118     118       --         2.569 au  H             1.00      1 D:z2            7
                        (      69.917 eV)
   119     119       --         2.569 au  H             1.00      1 D:x2-y2         7
                        (      69.917 eV)
   120     120       --         2.569 au  H             1.00      1 D:xy            7
                        (      69.917 eV)
   121     121       --         2.569 au  H             1.00      1 D:xz            7
                        (      69.917 eV)
   122     122       --         2.569 au  H             1.00      1 D:yz            7
                        (      69.917 eV)
   123     123      1.000      -0.240 au  H             1.00      1 S               8
                        (      -6.532 eV)
   124     124       --         0.088 au  H             1.00      2 S               8
                        (       2.394 eV)
   125     125       --         1.502 au  H             1.00      3 S               8
                        (      40.869 eV)
   126     126       --         0.406 au  H             1.00      1 P:x             8
                        (      11.051 eV)
   127     127       --         0.406 au  H             1.00      1 P:y             8
                        (      11.051 eV)
   128     128       --         0.406 au  H             1.00      1 P:z             8
                        (      11.051 eV)
   129     129       --         2.569 au  H             1.00      1 D:z2            8
                        (      69.917 eV)
   130     130       --         2.569 au  H             1.00      1 D:x2-y2         8
                        (      69.917 eV)
   131     131       --         2.569 au  H             1.00      1 D:xy            8
                        (      69.917 eV)
   132     132       --         2.569 au  H             1.00      1 D:xz            8
                        (      69.917 eV)
   133     133       --         2.569 au  H             1.00      1 D:yz            8
                        (      69.917 eV)
   134     134      1.000      -0.240 au  H             1.00      1 S               9
                        (      -6.532 eV)
   135     135       --         0.088 au  H             1.00      2 S               9
                        (       2.394 eV)
   136     136       --         1.502 au  H             1.00      3 S               9
                        (      40.869 eV)
   137     137       --         0.406 au  H             1.00      1 P:x             9
                        (      11.051 eV)
   138     138       --         0.406 au  H             1.00      1 P:y             9
                        (      11.051 eV)
   139     139       --         0.406 au  H             1.00      1 P:z             9
                        (      11.051 eV)
   140     140       --         2.569 au  H             1.00      1 D:z2            9
                        (      69.917 eV)
   141     141       --         2.569 au  H             1.00      1 D:x2-y2         9
                        (      69.917 eV)
   142     142       --         2.569 au  H             1.00      1 D:xy            9
                        (      69.917 eV)
   143     143       --         2.569 au  H             1.00      1 D:xz            9
                        (      69.917 eV)
   144     144       --         2.569 au  H             1.00      1 D:yz            9
                        (      69.917 eV)
   145     145      2.000     -24.402 au  F             1.00      1 S              10
                        (    -664.014 eV)
   146     146      2.000      -1.095 au  F             1.00      2 S              10
                        (     -29.785 eV)
   147     147       --         0.023 au  F             1.00      3 S              10
                        (       0.624 eV)
   148     148       --         1.576 au  F             1.00      4 S              10
                        (      42.880 eV)
   149     149       --        47.803 au  F             1.00      5 S              10
                        (    1300.785 eV)
   150     150      1.667      -0.409 au  F             1.00      1 P:x            10
                        (     -11.127 eV)
   151     151       --         0.428 au  F             1.00      2 P:x            10
                        (      11.654 eV)
   152     152       --         4.556 au  F             1.00      3 P:x            10
                        (     123.977 eV)
   153     153      1.667      -0.409 au  F             1.00      1 P:y            10
                        (     -11.127 eV)
   154     154       --         0.428 au  F             1.00      2 P:y            10
                        (      11.654 eV)
   155     155       --         4.556 au  F             1.00      3 P:y            10
                        (     123.977 eV)
   156     156      1.667      -0.409 au  F             1.00      1 P:z            10
                        (     -11.127 eV)
   157     157       --         0.428 au  F             1.00      2 P:z            10
                        (      11.654 eV)
   158     158       --         4.556 au  F             1.00      3 P:z            10
                        (     123.977 eV)
   159     159       --         1.117 au  F             1.00      1 D:z2           10
                        (      30.390 eV)
   160     160       --         1.117 au  F             1.00      1 D:x2-y2        10
                        (      30.390 eV)
   161     161       --         1.117 au  F             1.00      1 D:xy           10
                        (      30.390 eV)
   162     162       --         1.117 au  F             1.00      1 D:xz           10
                        (      30.390 eV)
   163     163       --         1.117 au  F             1.00      1 D:yz           10
                        (      30.390 eV)
   164     164       --         3.416 au  F             1.00      1 F:z3           10
                        (      92.949 eV)
   165     165       --         3.416 au  F             1.00      1 F:z            10
                        (      92.949 eV)
   166     166       --         3.416 au  F             1.00      1 F:xyz          10
                        (      92.949 eV)
   167     167       --         3.416 au  F             1.00      1 F:z2x          10
                        (      92.949 eV)
   168     168       --         3.416 au  F             1.00      1 F:z2y          10
                        (      92.949 eV)
   169     169       --         3.416 au  F             1.00      1 F:x            10
                        (      92.949 eV)
   170     170       --         3.416 au  F             1.00      1 F:y            10
                        (      92.949 eV)
   171     171      2.000     -14.160 au  N             1.00      1 S              11
                        (    -385.319 eV)
   172     172      2.000      -0.678 au  N             1.00      2 S              11
                        (     -18.450 eV)
   173     173       --         0.517 au  N             1.00      3 S              11
                        (      14.073 eV)
   174     174       --         6.872 au  N             1.00      4 S              11
                        (     186.990 eV)
   175     175       --        63.432 au  N             1.00      5 S              11
                        (    1726.082 eV)
   176     176      1.000      -0.260 au  N             1.00      1 P:x            11
                        (      -7.062 eV)
   177     177       --         0.281 au  N             1.00      2 P:x            11
                        (       7.649 eV)
   178     178       --         3.275 au  N             1.00      3 P:x            11
                        (      89.105 eV)
   179     179      1.000      -0.260 au  N             1.00      1 P:y            11
                        (      -7.062 eV)
   180     180       --         0.281 au  N             1.00      2 P:y            11
                        (       7.649 eV)
   181     181       --         3.275 au  N             1.00      3 P:y            11
                        (      89.105 eV)
   182     182      1.000      -0.260 au  N             1.00      1 P:z            11
                        (      -7.062 eV)
   183     183       --         0.281 au  N             1.00      2 P:z            11
                        (       7.649 eV)
   184     184       --         3.275 au  N             1.00      3 P:z            11
                        (      89.105 eV)
   185     185       --         1.250 au  N             1.00      1 D:z2           11
                        (      34.005 eV)
   186     186       --         1.250 au  N             1.00      1 D:x2-y2        11
                        (      34.005 eV)
   187     187       --         1.250 au  N             1.00      1 D:xy           11
                        (      34.005 eV)
   188     188       --         1.250 au  N             1.00      1 D:xz           11
                        (      34.005 eV)
   189     189       --         1.250 au  N             1.00      1 D:yz           11
                        (      34.005 eV)
   190     190       --         4.013 au  N             1.00      1 F:z3           11
                        (     109.190 eV)
   191     191       --         4.013 au  N             1.00      1 F:z            11
                        (     109.190 eV)
   192     192       --         4.013 au  N             1.00      1 F:xyz          11
                        (     109.190 eV)
   193     193       --         4.013 au  N             1.00      1 F:z2x          11
                        (     109.190 eV)
   194     194       --         4.013 au  N             1.00      1 F:z2y          11
                        (     109.190 eV)
   195     195       --         4.013 au  N             1.00      1 F:x            11
                        (     109.190 eV)
   196     196       --         4.013 au  N             1.00      1 F:y            11
                        (     109.190 eV)
   197     197      2.000     -18.941 au  O             1.00      1 S              12
                        (    -515.403 eV)
   198     198      2.000      -0.876 au  O             1.00      2 S              12
                        (     -23.838 eV)
   199     199       --         0.791 au  O             1.00      3 S              12
                        (      21.524 eV)
   200     200       --        13.422 au  O             1.00      4 S              12
                        (     365.226 eV)
   201     201       --       121.561 au  O             1.00      5 S              12
                        (    3307.838 eV)
   202     202      1.333      -0.331 au  O             1.00      1 P:x            12
                        (      -9.020 eV)
   203     203       --         0.347 au  O             1.00      2 P:x            12
                        (       9.437 eV)
   204     204       --         3.820 au  O             1.00      3 P:x            12
                        (     103.939 eV)
   205     205      1.333      -0.331 au  O             1.00      1 P:y            12
                        (      -9.020 eV)
   206     206       --         0.347 au  O             1.00      2 P:y            12
                        (       9.437 eV)
   207     207       --         3.820 au  O             1.00      3 P:y            12
                        (     103.939 eV)
   208     208      1.333      -0.331 au  O             1.00      1 P:z            12
                        (      -9.020 eV)
   209     209       --         0.347 au  O             1.00      2 P:z            12
                        (       9.437 eV)
   210     210       --         3.820 au  O             1.00      3 P:z            12
                        (     103.939 eV)
   211     211       --         1.071 au  O             1.00      1 D:z2           12
                        (      29.134 eV)
   212     212       --         1.071 au  O             1.00      1 D:x2-y2        12
                        (      29.134 eV)
   213     213       --         1.071 au  O             1.00      1 D:xy           12
                        (      29.134 eV)
   214     214       --         1.071 au  O             1.00      1 D:xz           12
                        (      29.134 eV)
   215     215       --         1.071 au  O             1.00      1 D:yz           12
                        (      29.134 eV)
   216     216       --         3.359 au  O             1.00      1 F:z3           12
                        (      91.410 eV)
   217     217       --         3.359 au  O             1.00      1 F:z            12
                        (      91.410 eV)
   218     218       --         3.359 au  O             1.00      1 F:xyz          12
                        (      91.410 eV)
   219     219       --         3.359 au  O             1.00      1 F:z2x          12
                        (      91.410 eV)
   220     220       --         3.359 au  O             1.00      1 F:z2y          12
                        (      91.410 eV)
   221     221       --         3.359 au  O             1.00      1 F:x            12
                        (      91.410 eV)
   222     222       --         3.359 au  O             1.00      1 F:y            12
                        (      91.410 eV)
   223     223      2.000     -18.941 au  O             1.00      1 S              13
                        (    -515.403 eV)
   224     224      2.000      -0.876 au  O             1.00      2 S              13
                        (     -23.838 eV)
   225     225       --         0.791 au  O             1.00      3 S              13
                        (      21.524 eV)
   226     226       --        13.422 au  O             1.00      4 S              13
                        (     365.226 eV)
   227     227       --       121.561 au  O             1.00      5 S              13
                        (    3307.838 eV)
   228     228      1.333      -0.331 au  O             1.00      1 P:x            13
                        (      -9.020 eV)
   229     229       --         0.347 au  O             1.00      2 P:x            13
                        (       9.437 eV)
   230     230       --         3.820 au  O             1.00      3 P:x            13
                        (     103.939 eV)
   231     231      1.333      -0.331 au  O             1.00      1 P:y            13
                        (      -9.020 eV)
   232     232       --         0.347 au  O             1.00      2 P:y            13
                        (       9.437 eV)
   233     233       --         3.820 au  O             1.00      3 P:y            13
                        (     103.939 eV)
   234     234      1.333      -0.331 au  O             1.00      1 P:z            13
                        (      -9.020 eV)
   235     235       --         0.347 au  O             1.00      2 P:z            13
                        (       9.437 eV)
   236     236       --         3.820 au  O             1.00      3 P:z            13
                        (     103.939 eV)
   237     237       --         1.071 au  O             1.00      1 D:z2           13
                        (      29.134 eV)
   238     238       --         1.071 au  O             1.00      1 D:x2-y2        13
                        (      29.134 eV)
   239     239       --         1.071 au  O             1.00      1 D:xy           13
                        (      29.134 eV)
   240     240       --         1.071 au  O             1.00      1 D:xz           13
                        (      29.134 eV)
   241     241       --         1.071 au  O             1.00      1 D:yz           13
                        (      29.134 eV)
   242     242       --         3.359 au  O             1.00      1 F:z3           13
                        (      91.410 eV)
   243     243       --         3.359 au  O             1.00      1 F:z            13
                        (      91.410 eV)
   244     244       --         3.359 au  O             1.00      1 F:xyz          13
                        (      91.410 eV)
   245     245       --         3.359 au  O             1.00      1 F:z2x          13
                        (      91.410 eV)
   246     246       --         3.359 au  O             1.00      1 F:z2y          13
                        (      91.410 eV)
   247     247       --         3.359 au  O             1.00      1 F:x            13
                        (      91.410 eV)
   248     248       --         3.359 au  O             1.00      1 F:y            13
                        (      91.410 eV)



 ================================
 (Slater-type)  F U N C T I O N S  ***  (Basis and Fit)  ***
 ================================
  

 Atom Type    1  (C)
 ==============

 Valence Basis Sets:  10
 -----------------------
   1 S    7.680000
   1 S    5.000000
   2 S    1.280000
   2 S    2.100000
   2 S    4.600000
   2 P    0.820000
   2 P    1.480000
   2 P    2.940000
   3 D    2.200000
   4 F    3.300000

 Atom Type    2  (H)
 ==============

 Valence Basis Sets:   5
 -----------------------
   1 S    0.690000
   1 S    0.920000
   1 S    1.580000
   2 P    1.250000
   3 D    2.500000

 Atom Type    3  (F)
 ==============

 Valence Basis Sets:  10
 -----------------------
   1 S   10.880000
   1 S    7.700000
   2 S    3.240000
   2 S    1.940000
   2 S    0.740000
   2 P    4.540000
   2 P    2.300000
   2 P    1.240000
   3 D    2.000000
   4 F    3.000000

 Atom Type    4  (N)
 ==============

 Valence Basis Sets:  10
 -----------------------
   1 S    8.740000
   1 S    5.900000
   2 S    5.150000
   2 S    2.500000
   2 S    1.500000
   2 P    3.680000
   2 P    1.880000
   2 P    1.000000
   3 D    2.200000
   4 F    3.300000

 Atom Type    5  (O)
 ==============

 Valence Basis Sets:  10
 -----------------------
   1 S    9.800000
   1 S    6.800000
   2 S    7.580000
   2 S    2.880000
   2 S    1.720000
   2 P    4.080000
   2 P    2.080000
   2 P    1.120000
   3 D    2.000000
   4 F    3.000000


 BAS: List of all Elementary Cartesian Basis Functions
 =====================================================

 The numbering in the list below (to the right of the function characteristics) is referred
 to in print-outs of MO eigenvectors and Mulliken populations in the BAS representation
 (as contrasted to the SFO representation).

 Notes:
 1. The functions are characterized by a polynomial prefactor (powers of x,y,z and r) and
    an exponential decay factor alpha.
 2. Since the basis sets are specific for an atom TYPE, the individual functions occur on
    all atoms of that type.
 3. The word 'Core' in the left margin signals that it is a Core Function (CF) : not a
    degree of freedom in the valence set, but only used to ensure orthogonalization of
    the other valence basis functions on the frozen Core Orbitals.


 (power of) X  Y  Z  R     Alpha  on Atom
            ==========     =====     ==========

 C                                    1    2    3
                                  ---------------------------------------------------------------------------
            0  0  0  0     7.680      1   31   61
            0  0  0  0     5.000      2   32   62
            0  0  0  1     1.280      3   33   63
            0  0  0  1     2.100      4   34   64
            0  0  0  1     4.600      5   35   65
            1  0  0  0     0.820      6   36   66
            0  1  0  0     0.820      7   37   67
            0  0  1  0     0.820      8   38   68
            1  0  0  0     1.480      9   39   69
            0  1  0  0     1.480     10   40   70
            0  0  1  0     1.480     11   41   71
            1  0  0  0     2.940     12   42   72
            0  1  0  0     2.940     13   43   73
            0  0  1  0     2.940     14   44   74
            2  0  0  0     2.200     15   45   75
            1  1  0  0     2.200     16   46   76
            1  0  1  0     2.200     17   47   77
            0  2  0  0     2.200     18   48   78
            0  1  1  0     2.200     19   49   79
            0  0  2  0     2.200     20   50   80
            3  0  0  0     3.300     21   51   81
            2  1  0  0     3.300     22   52   82
            2  0  1  0     3.300     23   53   83
            1  2  0  0     3.300     24   54   84
            1  1  1  0     3.300     25   55   85
            1  0  2  0     3.300     26   56   86
            0  3  0  0     3.300     27   57   87
            0  2  1  0     3.300     28   58   88
            0  1  2  0     3.300     29   59   89
            0  0  3  0     3.300     30   60   90

 H                                    4    5    6    7    8    9
                                  ---------------------------------------------------------------------------
            0  0  0  0     0.690     91  103  115  127  139  151
            0  0  0  0     0.920     92  104  116  128  140  152
            0  0  0  0     1.580     93  105  117  129  141  153
            1  0  0  0     1.250     94  106  118  130  142  154
            0  1  0  0     1.250     95  107  119  131  143  155
            0  0  1  0     1.250     96  108  120  132  144  156
            2  0  0  0     2.500     97  109  121  133  145  157
            1  1  0  0     2.500     98  110  122  134  146  158
            1  0  1  0     2.500     99  111  123  135  147  159
            0  2  0  0     2.500    100  112  124  136  148  160
            0  1  1  0     2.500    101  113  125  137  149  161
            0  0  2  0     2.500    102  114  126  138  150  162

 F                                   10
                                  ---------------------------------------------------------------------------
            0  0  0  0    10.880    163
            0  0  0  0     7.700    164
            0  0  0  1     3.240    165
            0  0  0  1     1.940    166
            0  0  0  1     0.740    167
            1  0  0  0     4.540    168
            0  1  0  0     4.540    169
            0  0  1  0     4.540    170
            1  0  0  0     2.300    171
            0  1  0  0     2.300    172
            0  0  1  0     2.300    173
            1  0  0  0     1.240    174
            0  1  0  0     1.240    175
            0  0  1  0     1.240    176
            2  0  0  0     2.000    177
            1  1  0  0     2.000    178
            1  0  1  0     2.000    179
            0  2  0  0     2.000    180
            0  1  1  0     2.000    181
            0  0  2  0     2.000    182
            3  0  0  0     3.000    183
            2  1  0  0     3.000    184
            2  0  1  0     3.000    185
            1  2  0  0     3.000    186
            1  1  1  0     3.000    187
            1  0  2  0     3.000    188
            0  3  0  0     3.000    189
            0  2  1  0     3.000    190
            0  1  2  0     3.000    191
            0  0  3  0     3.000    192

 N                                   11
                                  ---------------------------------------------------------------------------
            0  0  0  0     8.740    193
            0  0  0  0     5.900    194
            0  0  0  1     5.150    195
            0  0  0  1     2.500    196
            0  0  0  1     1.500    197
            1  0  0  0     3.680    198
            0  1  0  0     3.680    199
            0  0  1  0     3.680    200
            1  0  0  0     1.880    201
            0  1  0  0     1.880    202
            0  0  1  0     1.880    203
            1  0  0  0     1.000    204
            0  1  0  0     1.000    205
            0  0  1  0     1.000    206
            2  0  0  0     2.200    207
            1  1  0  0     2.200    208
            1  0  1  0     2.200    209
            0  2  0  0     2.200    210
            0  1  1  0     2.200    211
            0  0  2  0     2.200    212
            3  0  0  0     3.300    213
            2  1  0  0     3.300    214
            2  0  1  0     3.300    215
            1  2  0  0     3.300    216
            1  1  1  0     3.300    217
            1  0  2  0     3.300    218
            0  3  0  0     3.300    219
            0  2  1  0     3.300    220
            0  1  2  0     3.300    221
            0  0  3  0     3.300    222

 O                                   12   13
                                  ---------------------------------------------------------------------------
            0  0  0  0     9.800    223  253
            0  0  0  0     6.800    224  254
            0  0  0  1     7.580    225  255
            0  0  0  1     2.880    226  256
            0  0  0  1     1.720    227  257
            1  0  0  0     4.080    228  258
            0  1  0  0     4.080    229  259
            0  0  1  0     4.080    230  260
            1  0  0  0     2.080    231  261
            0  1  0  0     2.080    232  262
            0  0  1  0     2.080    233  263
            1  0  0  0     1.120    234  264
            0  1  0  0     1.120    235  265
            0  0  1  0     1.120    236  266
            2  0  0  0     2.000    237  267
            1  1  0  0     2.000    238  268
            1  0  1  0     2.000    239  269
            0  2  0  0     2.000    240  270
            0  1  1  0     2.000    241  271
            0  0  2  0     2.000    242  272
            3  0  0  0     3.000    243  273
            2  1  0  0     3.000    244  274
            2  0  1  0     3.000    245  275
            1  2  0  0     3.000    246  276
            1  1  1  0     3.000    247  277
            1  0  2  0     3.000    248  278
            0  3  0  0     3.000    249  279
            0  2  1  0     3.000    250  280
            0  1  2  0     3.000    251  281
            0  0  3  0     3.000    252  282

 Total number of charge fitting functions (nprimf)       889
 Total number of Cartesian basis functions (naos)        282
 Total number of Cartesian core functions  (ncos)          0

 ***************************************************************************************************



                                              ***********************
                                              *  T E C H N I C A L  *
                                              ***********************
  



 =============================================================
 P A R A L L E L I Z A T I O N  and  V E C T O R I Z A T I O N
 =============================================================
  
 Nr of parallel processes:                                1
 Maximum vector length in NumInt loops:                 128



 =====================
 S C F   U P D A T E S
 =====================
  
 Max. nr. of cycles:                               200
 Convergence criterion:                              0.0000010000
   secondary criterion:                              0.0010000000

 Mix parameter (when DIIS does not apply):           0.2000000000
 Mixed ADIIS+SDIIS will be used                  
    Max number of expansion vectors:                10
    Pure ADIIS when Max([F,P]) is above              0.1000000000
    Pure SDIIS when Max([F,P]) is below              0.0010000000
 Automatic ElectronSmearing (in case of problematic SCF convergence) disabled



 =================
 P R E C I S I O N  ***  (General: NumInt, NeglectFunctionTails, ...)  ***
 =================
  

 NumInt:           Target precision:                 4.0000000000
 -------           Initial precision:                4.0000000000
                   Min. precision (optimization):    4.0000000000

 Neglect Functions:          Basis functions:        0.1000000000E-05
 ------------------          Fit functions:          0.1000000000E-05



 ===========================
 L I N E A R   S C A L I N G
 ===========================
  

 Cut-off radii density fit:                        0.1000000000E-07
 Overlap cut-off criterion AO matrix elements:     0.1000000000E-05
 Cut-offs for Coulomb potential and fitted density:0.1000000000E-07
 Cut-off criterion for Coulomb multipole terms:    0.1000000000E-07
 Progressive Convergence parameter:                 0.000000000    
 ***************************************************************************************************



                                            ***************************
                                            *  C O M P U T A T I O N  *
                                            ***************************
  

 Number of elements of the density matrix on this node (used, total):     39903     39903



 ===========================================
 Numerical Integration : Fuzzy Cells (Becke)
 ===========================================
  
 Becke grid quality: NORMAL         
  
 Lebedev angular grid order:             min:  11 max:  23
 Nr. of radial points:                   min:  46 max:  55

 Total nr. of points:      84731
 Nr. of blocks:              662
 Block length:               128
 Nr. of dummy points:          5


 Test of Precision of the Numerical Integration Grid
 ===================================================

 Integral of the Total Core Density:                   0.00000000000000



 ========================
 Density Fitting (zlmFit)
 ========================
  
 ZlmFit Fit Quality: NORMAL         
  
 Max L-expansion:                        min:   6 max:   7
 Nr. of radial interpolation points:     min:  39 max:  54



 =====
 S C F  ***  ScaSCF  ***
 =====
  
 Initial density matrix is calculated as sum of fragments

 CYCLE    1
 SCF Error: norm([F,P])=      5.976738791274, max([F,P])=      1.259673320018
 orbitals (Q,E):
 ---------------
 A :19...38          ( 2.00    -0.5548)  ( 2.00    -0.5273)  ( 2.00    -0.5053)  ( 2.00    -0.4921)
                     ( 2.00    -0.4778)  ( 2.00    -0.4311)  ( 2.00    -0.4297)  ( 2.00    -0.3894)
                     ( 2.00    -0.3844)  ( 2.00    -0.3717)  ( 0.00    -0.1917)  ( 0.00    -0.1808)
                     ( 0.00    -0.0544)  ( 0.00    -0.0343)  ( 0.00    -0.0266)  ( 0.00    -0.0202)
                     ( 0.00    -0.0091)  ( 0.00    -0.0007)  ( 0.00     0.0055)  ( 0.00     0.0473)

 CYCLE    2
   MIX coefficients:  0.8000  0.2000
 SCF Error: norm([F,P])=      1.181929996670, max([F,P])=      0.182495879613
 orbitals (Q,E):
 ---------------
 A :19...29          ( 2.00    -0.5027)  ( 2.00    -0.4893)  ( 2.00    -0.4607)  ( 2.00    -0.4481)
                     ( 2.00    -0.4293)  ( 2.00    -0.3766)  ( 2.00    -0.3753)  ( 2.00    -0.3436)
                     ( 2.00    -0.3404)  ( 2.00    -0.3225)  ( 0.00    -0.1709)

 CYCLE    3
  SDIIS (wt  0.000): -0.5495  1.5495
 A-DIIS (wt  1.000):  0.0000  1.0000
  DIIS coefficients:  0.0000  1.0000
 SCF Error: norm([F,P])=      0.502208821138, max([F,P])=      0.090460366872
 orbitals (Q,E):
 ---------------
 A :19...29          ( 2.00    -0.3681)  ( 2.00    -0.3523)  ( 2.00    -0.3110)  ( 2.00    -0.2936)
                     ( 2.00    -0.2909)  ( 2.00    -0.2425)  ( 2.00    -0.2384)  ( 2.00    -0.2267)
                     ( 2.00    -0.2213)  ( 2.00    -0.1991)  ( 0.00    -0.0863)

 CYCLE    4
  SDIIS (wt  0.000):  0.3185  0.1427  0.5388
 A-DIIS (wt  1.000):  0.0000  0.6709  0.3291
  DIIS coefficients:  0.0000  0.6709  0.3291
 SCF Error: norm([F,P])=      0.825848597717, max([F,P])=      0.146445217142
 orbitals (Q,E):
 ---------------
 A :19...29          ( 2.00    -0.4044)  ( 2.00    -0.3972)  ( 2.00    -0.3607)  ( 2.00    -0.3443)
                     ( 2.00    -0.3420)  ( 2.00    -0.2961)  ( 2.00    -0.2917)  ( 2.00    -0.2747)
                     ( 2.00    -0.2600)  ( 2.00    -0.2421)  ( 0.00    -0.1033)

 CYCLE    5
  SDIIS (wt  0.722): -0.1739  0.5196  0.0319  0.6224
 A-DIIS (wt  0.278):  0.0000  0.0000  0.0000  1.0000
  DIIS coefficients: -0.1256  0.3752  0.0230  0.7274
 SCF Error: norm([F,P])=      0.162234012580, max([F,P])=      0.028518487842
 orbitals (Q,E):
 ---------------
 A :19...29          ( 2.00    -0.4232)  ( 2.00    -0.4188)  ( 2.00    -0.3818)  ( 2.00    -0.3643)
                     ( 2.00    -0.3541)  ( 2.00    -0.2951)  ( 2.00    -0.2936)  ( 2.00    -0.2804)
                     ( 2.00    -0.2725)  ( 2.00    -0.2512)  ( 0.00    -0.1208)

 CYCLE    6
  SDIIS (wt  0.722): -0.0581  0.1900 -0.0055  0.4987  0.3749
 A-DIIS (wt  0.278):  0.0000  0.0000  0.0000  0.4202  0.5798
  DIIS coefficients: -0.0420  0.1372 -0.0039  0.4769  0.4319
 SCF Error: norm([F,P])=      0.145178655834, max([F,P])=      0.041321270773
 orbitals (Q,E):
 ---------------
 A :19...29          ( 2.00    -0.4186)  ( 2.00    -0.4128)  ( 2.00    -0.3757)  ( 2.00    -0.3580)
                     ( 2.00    -0.3567)  ( 2.00    -0.3053)  ( 2.00    -0.3015)  ( 2.00    -0.2837)
                     ( 2.00    -0.2718)  ( 2.00    -0.2523)  ( 0.00    -0.1177)

 CYCLE    7
  SDIIS (wt  0.831): -0.0023  0.0544  0.0119  0.2785  0.3158  0.3417
 A-DIIS (wt  0.169):  0.0000  0.0000  0.0000  0.0000  0.0787  0.9213
  DIIS coefficients: -0.0019  0.0452  0.0099  0.2313  0.2756  0.4399
 SCF Error: norm([F,P])=      0.049174189894, max([F,P])=      0.017769739665
 orbitals (Q,E):
 ---------------
 A :19...29          ( 2.00    -0.4180)  ( 2.00    -0.4126)  ( 2.00    -0.3756)  ( 2.00    -0.3582)
                     ( 2.00    -0.3537)  ( 2.00    -0.2989)  ( 2.00    -0.2962)  ( 2.00    -0.2813)
                     ( 2.00    -0.2703)  ( 2.00    -0.2507)  ( 0.00    -0.1158)

 CYCLE    8
  SDIIS (wt  0.918): -0.0041  0.0274  0.0029  0.1396  0.1675  0.3444  0.3222
 A-DIIS (wt  0.082):  0.0000  0.0000  0.0000  0.0000  0.0000  0.3039  0.6961
  DIIS coefficients: -0.0038  0.0252  0.0026  0.1282  0.1539  0.3411  0.3528
 SCF Error: norm([F,P])=      0.026760030225, max([F,P])=      0.009081780210
 orbitals (Q,E):
 ---------------
 A :19...29          ( 2.00    -0.4183)  ( 2.00    -0.4128)  ( 2.00    -0.3757)  ( 2.00    -0.3584)
                     ( 2.00    -0.3547)  ( 2.00    -0.3008)  ( 2.00    -0.2978)  ( 2.00    -0.2817)
                     ( 2.00    -0.2704)  ( 2.00    -0.2508)  ( 0.00    -0.1160)

 CYCLE    9
  SDIIS (wt  0.986): -0.0041  0.0163 -0.0001  0.0795  0.0975  0.2641  0.3192  0.2276
 A-DIIS (wt  0.014):  0.0000  0.0000  0.0000  0.0000  0.0000  0.0000  0.1355  0.8645
  DIIS coefficients: -0.0040  0.0160 -0.0001  0.0784  0.0962  0.2604  0.3167  0.2364
 SCF Error: norm([F,P])=      0.010128894730, max([F,P])=      0.002369222036
 orbitals (Q,E):
 ---------------
 A :19...29          ( 2.00    -0.4182)  ( 2.00    -0.4127)  ( 2.00    -0.3756)  ( 2.00    -0.3583)
                     ( 2.00    -0.3547)  ( 2.00    -0.3009)  ( 2.00    -0.2979)  ( 2.00    -0.2817)
                     ( 2.00    -0.2705)  ( 2.00    -0.2509)  ( 0.00    -0.1161)

 CYCLE   10
  SDIIS (wt  1.000): -0.0016  0.0054 -0.0003  0.0286  0.0374  0.1223  0.1663  0.1807  0.4613
  DIIS coefficients: -0.0016  0.0054 -0.0003  0.0286  0.0374  0.1223  0.1663  0.1807  0.4613
 SCF Error: norm([F,P])=      0.001901848838, max([F,P])=      0.000410804348
 orbitals (Q,E):
 ---------------
 A :19...29          ( 2.00    -0.4182)  ( 2.00    -0.4127)  ( 2.00    -0.3757)  ( 2.00    -0.3583)
                     ( 2.00    -0.3547)  ( 2.00    -0.3009)  ( 2.00    -0.2979)  ( 2.00    -0.2819)
                     ( 2.00    -0.2706)  ( 2.00    -0.2510)  ( 0.00    -0.1163)

 CYCLE   11
  SDIIS (wt  1.000): -0.0004  0.0009 -0.0001  0.0044  0.0063  0.0251  0.0378  0.0551  0.2017  0.6692
  DIIS coefficients: -0.0004  0.0009 -0.0001  0.0044  0.0063  0.0251  0.0378  0.0551  0.2017  0.6692
 SCF Error: norm([F,P])=      0.000271739985, max([F,P])=      0.000045614242
 orbitals (Q,E):
 ---------------
 A :19...29          ( 2.00    -0.4182)  ( 2.00    -0.4127)  ( 2.00    -0.3757)  ( 2.00    -0.3583)
                     ( 2.00    -0.3547)  ( 2.00    -0.3009)  ( 2.00    -0.2979)  ( 2.00    -0.2818)
                     ( 2.00    -0.2706)  ( 2.00    -0.2510)  ( 0.00    -0.1162)

 CYCLE   12
  SDIIS (wt  1.000):  0.0000  0.0000  0.0005  0.0011  0.0053  0.0084  0.0176  0.0777  0.3701  0.5194
  DIIS coefficients:  0.0000  0.0000  0.0005  0.0011  0.0053  0.0084  0.0176  0.0777  0.3701  0.5194
 SCF Error: norm([F,P])=      0.000111185665, max([F,P])=      0.000025700323
 orbitals (Q,E):
 ---------------
 A :19...29          ( 2.00    -0.4182)  ( 2.00    -0.4127)  ( 2.00    -0.3757)  ( 2.00    -0.3583)
                     ( 2.00    -0.3547)  ( 2.00    -0.3009)  ( 2.00    -0.2979)  ( 2.00    -0.2818)
                     ( 2.00    -0.2706)  ( 2.00    -0.2510)  ( 0.00    -0.1162)

 CYCLE   13
  SDIIS (wt  1.000):  0.0000  0.0001  0.0002  0.0014  0.0022  0.0057  0.0277  0.1444  0.2658  0.5526
  DIIS coefficients:  0.0000  0.0001  0.0002  0.0014  0.0022  0.0057  0.0277  0.1444  0.2658  0.5526
 SCF Error: norm([F,P])=      0.000024531453, max([F,P])=      0.000005593598
 orbitals (Q,E):
 ---------------
 A :19...29          ( 2.00    -0.4182)  ( 2.00    -0.4127)  ( 2.00    -0.3757)  ( 2.00    -0.3583)
                     ( 2.00    -0.3547)  ( 2.00    -0.3009)  ( 2.00    -0.2979)  ( 2.00    -0.2818)
                     ( 2.00    -0.2706)  ( 2.00    -0.2510)  ( 0.00    -0.1162)

 CYCLE   14
  SDIIS (wt  1.000):  0.0000  0.0001  0.0003  0.0004  0.0013  0.0070  0.0372  0.0811  0.2388  0.6338
  DIIS coefficients:  0.0000  0.0001  0.0003  0.0004  0.0013  0.0070  0.0372  0.0811  0.2388  0.6338
 SCF Error: norm([F,P])=      0.000005213044, max([F,P])=      0.000001055747
 orbitals (Q,E):
 ---------------
 A :19...29          ( 2.00    -0.4182)  ( 2.00    -0.4127)  ( 2.00    -0.3757)  ( 2.00    -0.3583)
                     ( 2.00    -0.3547)  ( 2.00    -0.3009)  ( 2.00    -0.2979)  ( 2.00    -0.2818)
                     ( 2.00    -0.2706)  ( 2.00    -0.2510)  ( 0.00    -0.1162)

 CYCLE   15
  SDIIS (wt  1.000):  0.0000  0.0000  0.0001  0.0003  0.0021  0.0117  0.0269  0.0939  0.3301  0.5348
  DIIS coefficients:  0.0000  0.0000  0.0001  0.0003  0.0021  0.0117  0.0269  0.0939  0.3301  0.5348
 SCF Error: norm([F,P])=      0.000001797852, max([F,P])=      0.000000457216
 orbitals (Q,E):
 ---------------
 A :19...29          ( 2.00    -0.4182)  ( 2.00    -0.4127)  ( 2.00    -0.3757)  ( 2.00    -0.3583)
                     ( 2.00    -0.3547)  ( 2.00    -0.3009)  ( 2.00    -0.2979)  ( 2.00    -0.2818)
                     ( 2.00    -0.2706)  ( 2.00    -0.2510)  ( 0.00    -0.1162)

 SCF CONVERGED

 CYCLE   16
 ***************************************************************************************************



                                                *******************
                                                *  R E S U L T S  *
                                                *******************
  
 *** Using FIT density in Focky
  SDIIS (wt  1.000): -0.0000 -0.0000  0.0000  0.0001  0.0008  0.0026  0.0141  0.0769  0.2346  0.6710
  DIIS coefficients: -0.0000 -0.0000  0.0000  0.0001  0.0008  0.0026  0.0141  0.0769  0.2346  0.6710
 SCF Error: norm([F,P])=      0.000000476746, max([F,P])=      0.000000100824

 Scaled ZORA Orbital Energies, per Irrep and Spin:
 =================================================
                        Occup              E (au)              E (eV)       Diff (eV) with prev. cycle
                        -----      --------------------        ------       --------------------------
 A
              19        2.000     -0.41823879023106E+00       -11.381              -9.51E-07
              20        2.000     -0.41274015986853E+00       -11.231              -6.54E-07
              21        2.000     -0.37565256587251E+00       -10.222              -9.22E-07
              22        2.000     -0.35825968093507E+00        -9.749              -1.44E-06
              23        2.000     -0.35470770015066E+00        -9.652              -1.22E-06
              24        2.000     -0.30090478953951E+00        -8.188              -1.18E-06
              25        2.000     -0.29788416034822E+00        -8.106              -1.08E-06
              26        2.000     -0.28184276285409E+00        -7.669              -9.56E-08
              27        2.000     -0.27059372294182E+00        -7.363               8.64E-08
              28        2.000     -0.25097854129217E+00        -6.829               1.31E-07
              29        0.000     -0.11623729471320E+00        -3.163
              30        0.000     -0.89204211681811E-01        -2.427
              31        0.000     -0.18217447992554E-01        -0.496
              32        0.000      0.14833760506904E-02         0.040
              33        0.000      0.10055849450006E-01         0.274
              34        0.000      0.37649968288721E-01         1.025
              35        0.000      0.46384006909725E-01         1.262
              36        0.000      0.57700615782696E-01         1.570
              37        0.000      0.70939346106847E-01         1.930
              38        0.000      0.10103446101038E+00         2.749
  
 HOMO :       28 A                -0.25097854129217E+00
 LUMO :       29 A                -0.11623729471320E+00
  


 All Electron Calculation, thus no Orbital Energies of the Core Orbitals are calculated


 Fit test: (difference of exact and fit density, squared integrated, result summed over spins)
         Sum-of-Fragments:                             0.00000000137966
         Orthogonalized Fragments:                     0.00006673221432
         SCF:                                          0.00015414051064



 ==========================
 Electron Density at Nuclei
 ==========================
  
 The electron density is calculated at points on a small sphere around the center of a nucleus.
 The printed electron density is the average electron density on these points.
 The radius of the sphere is the printed approximate finite nuclear radius.
 Note: ZORA-4 density is used, which includes small component density

         Atom        Nuclear Radius (Angstrom)             Electron Density (a.u.)
         ----        -------------------------             -----------------------
     1)   C                 0.0000320678                              127.25176
     2)   H                 0.0000181514                                0.51304
     3)   F                 0.0000361580                              450.88246
     4)   C                 0.0000320678                              127.08969
     5)   H                 0.0000181514                                0.51877
     6)   H                 0.0000181514                                0.51256
     7)   C                 0.0000320678                              127.00331
     8)   H                 0.0000181514                                0.50972
     9)   H                 0.0000181514                                0.50528
    10)   H                 0.0000181514                                0.50768
    11)   N                 0.0000333706                              206.19535
    12)   O                 0.0000345546                              314.34648
    13)   O                 0.0000345546                              314.36132



 =======================================
 M U L L I K E N   P O P U L A T I O N S
 =======================================
  
 The survey below gives for each atom:
 a) the total charge (Z minus electrons)
 b) the net spin polarization (nr of electrons spin-A minus spin-B)
 c) for each spin the atomic electron valence density (integrated) per L-value.

 Atom              Charge    Spin density          S         P         D         F
 ----              ------    ------------       ------    ------    ------    ------
 1 C               0.5155                       3.1046    2.2969    0.0776    0.0053
 2 H              -0.1738                       1.0951    0.0728    0.0059    0.0000
 3 F              -0.4580                       3.9909    5.4458    0.0196    0.0018
 4 C               0.4915                       2.9564    2.4882    0.0600    0.0039
 5 H              -0.1623                       1.0837    0.0730    0.0057    0.0000
 6 H              -0.1609                       1.0793    0.0756    0.0061    0.0000
 7 C               0.6949                       2.8225    2.4407    0.0396    0.0022
 8 H              -0.2289                       1.1395    0.0834    0.0060    0.0000
 9 H              -0.1492                       1.0582    0.0847    0.0063    0.0000
 10 H             -0.1954                       1.1071    0.0823    0.0060    0.0000
 11 N              0.5806                       3.2280    2.9628    0.2151    0.0135
 12 O             -0.3851                       3.8455    4.4651    0.0659    0.0086
 13 O             -0.3687                       3.8462    4.4480    0.0658    0.0087

 Populations of individual BAS functions
 ----------------------------------------
 1 C            0.5056  1.4853  0.2197  0.9361 -0.0422 -0.0184 -0.1869 -0.1652  0.5049  0.8372
                0.8267  0.1108  0.1973  0.1905 -0.0044  0.0129  0.0156  0.0187  0.0182  0.0166
               -0.0013 -0.0027 -0.0018  0.0011  0.0005  0.0019  0.0036  0.0010  0.0006  0.0024
 4 C            0.5071  1.4825  0.0945  0.9130 -0.0407 -0.0918 -0.0959 -0.2025  0.7103  0.7536
                0.8646  0.1644  0.1801  0.2052  0.0042  0.0150  0.0112  0.0153  0.0111  0.0031
               -0.0003 -0.0001  0.0011  0.0021  0.0006 -0.0006  0.0033  0.0017 -0.0019 -0.0020
 7 C            0.5073  1.4819 -0.0439  0.9189 -0.0416 -0.2017 -0.1355 -0.1612  0.8039  0.8034
                0.7487  0.1976  0.2035  0.1821  0.0014  0.0074  0.0109  0.0034  0.0055  0.0110
               -0.0018  0.0005 -0.0007  0.0002  0.0002  0.0024 -0.0005 -0.0019  0.0005  0.0034
 2 H            0.1379  0.6475  0.3097  0.0203  0.0192  0.0333  0.0018  0.0008  0.0016 -0.0057
                0.0012  0.0061
 5 H            0.1660  0.5935  0.3242  0.0169  0.0281  0.0280 -0.0046  0.0008  0.0007  0.0050
                0.0014  0.0023
 6 H            0.1039  0.6631  0.3123  0.0187  0.0231  0.0338 -0.0034  0.0008  0.0014 -0.0006
                0.0013  0.0066
 8 H            0.1809  0.6493  0.3093  0.0316  0.0257  0.0261  0.0062  0.0013  0.0012 -0.0068
                0.0009  0.0032
 9 H            0.0742  0.6673  0.3168  0.0309  0.0323  0.0215  0.0044  0.0013  0.0013  0.0026
                0.0008 -0.0041
 10 H           0.1451  0.6496  0.3123  0.0255  0.0352  0.0216 -0.0028  0.0017  0.0005  0.0109
                0.0015 -0.0058
 3 F            0.5913  1.3849  1.0978  0.9007  0.0161  0.3177  0.4166  0.4079  0.8255  0.9889
                0.9779  0.4136  0.5588  0.5388  0.0163  0.0035  0.0049 -0.0034  0.0011 -0.0029
                0.0085  0.0052  0.0058 -0.0043  0.0001 -0.0035 -0.0038 -0.0014 -0.0011 -0.0038
 11 N           0.5503  1.4322 -0.0416  1.0309  0.2562  0.1705  0.1660  0.1820  0.8609  0.8440
                0.7518 -0.0160  0.0407 -0.0371  0.0224  0.0198  0.0607  0.0014  0.0532  0.0575
               -0.0015  0.0015 -0.0007 -0.0014  0.0019  0.0067 -0.0055 -0.0044  0.0070  0.0099
 12 O           0.7108  1.2118  0.0490  1.0486  0.8254  0.2807  0.2688  0.2839  0.8375  0.8168
                0.8425  0.3752  0.3766  0.3831  0.0081  0.0087  0.0187  0.0044  0.0143  0.0115
               -0.0006  0.0013  0.0014 -0.0020  0.0016  0.0050 -0.0040 -0.0022  0.0043  0.0039
 13 O           0.7099  1.2135  0.0480  1.0508  0.8240  0.3147  0.2814  0.2357  0.9132  0.8459
                0.7405  0.4674  0.4063  0.2428 -0.0015  0.0017  0.0170  0.0002  0.0188  0.0296
               -0.0077 -0.0031 -0.0087 -0.0022  0.0004  0.0123 -0.0065 -0.0079  0.0120  0.0199

 Gross Charges per Atom (Z minus electrons)
 ==========================================
             0.5155   -0.1738   -0.4580    0.4915   -0.1623   -0.1609    0.6949   -0.2289   -0.1492   -0.1954
             0.5806   -0.3851   -0.3687
 Net Total:  0.00000000


 Atom-Atom Population Matrix (off-diagonal elements not doubled)
 ===============================================================

     1 :     4.3148
     2 :    -0.0236    1.0533
     3 :     0.1862   -0.0030    9.4203
     4 :     0.3925    0.3254   -0.0420    4.3032
     5 :     0.3523   -0.0622   -0.0371   -0.0550    1.0350
     6 :    -0.0316   -0.0961    0.0037    0.3364    0.0137    1.0072
     7 :     0.3963    0.0078   -0.0239   -0.0228   -0.0552   -0.0264    3.9578
     8 :    -0.0263   -0.0004    0.0093   -0.0113   -0.0016   -0.0016    0.3137    1.0882
     9 :    -0.0298    0.0015   -0.0267   -0.0119    0.0102   -0.0101    0.3920   -0.0695    0.9153
    10 :    -0.0159   -0.0021   -0.0162    0.0057   -0.0370    0.0004    0.3692   -0.0722   -0.0207    0.9842
    11 :    -0.0151   -0.0226    0.0020    0.3812    0.0019   -0.0223   -0.0018    0.0002   -0.0008   -0.0002
             5.1472
    12 :    -0.0078    0.0125   -0.0081   -0.0478   -0.0020   -0.0185   -0.0015    0.0004    0.0004    0.0001
             0.4730    8.0890
    13 :    -0.0075   -0.0166   -0.0065   -0.0450   -0.0006    0.0060   -0.0002   -0.0001   -0.0007    0.0001
             0.4767   -0.1046    8.0678



 =================================================
 H I R S H F E L D   C H A R G E   A N A L Y S I S
 =================================================
  
 For each fragment: the (numerical) integral of rho(scf) * rho(fragment)/rho(sum-of-fragments)
 (nuclear charges are included, electrons are counted negative)

[...]
                                   -9.12%     2 P:y             4.589  0.00     1 C
                                    7.80%     1 S              -6.532  1.00     4 H
                                   -5.89%     2 P:z             4.589  0.00     3 C
                                    3.89%     2 S               2.394  0.00     8 H
                                    3.02%     2 S             -13.620  2.00     1 C
                                   -2.65%     2 P:y             4.589  0.00     2 C
                                   -2.36%     3 S              10.158  0.00     1 C
                                    1.82%     1 S              -6.532  1.00     8 H
                                   -1.46%     2 P:x             4.589  0.00     3 C
                                   -1.35%     1 P:z            -5.239  0.67     1 C
                                    1.25%     2 S               2.394  0.00     4 H
       0.274  0.00    33 A         26.97%     2 S               2.394  0.00     9 H
                                   22.47%     2 S               2.394  0.00     4 H
                                   13.15%     1 S              -6.532  1.00     9 H
                                   12.27%     1 S              -6.532  1.00     4 H
                                   11.16%     2 S               2.394  0.00     6 H
                                   10.66%     2 S               2.394  0.00     7 H
                                   10.47%     1 S              -6.532  1.00     6 H
                                   -5.59%     2 P:y             4.589  0.00     1 C
                                    5.50%     2 S               2.394  0.00     8 H
                                    5.34%     1 S              -6.532  1.00     7 H
                                    5.22%     1 S              -6.532  1.00     8 H
                                   -4.51%     2 P:y             4.589  0.00     2 C
                                   -4.45%     3 S              10.158  0.00     3 C
                                   -4.06%     3 S              10.158  0.00     2 C
                                   -2.93%     2 P:z             4.589  0.00     3 C
                                    2.72%     2 S             -13.620  2.00     2 C
                                   -2.70%     2 P:x             4.589  0.00     2 C
                                   -2.66%     2 P:z             4.589  0.00     1 C
                                   -2.59%     2 P:y             4.589  0.00     3 C
                                    1.82%     2 S             -13.620  2.00     3 C
                                   -1.57%     1 P:y            -5.239  0.67     1 C
                                   -1.47%     2 P:x             4.589  0.00     3 C
                                   -1.22%     3 S               0.624  0.00    10 F
                                    1.19%     2 S               2.394  0.00     5 H
                                    1.11%     1 S              -6.532  1.00     5 H
       1.025  0.00    34 A        -28.02%     2 P:x             4.589  0.00     3 C
                                   21.17%     1 S              -6.532  1.00     7 H
                                   16.32%     2 S               2.394  0.00     8 H
                                   15.23%     1 S              -6.532  1.00     9 H
                                   13.62%     1 S              -6.532  1.00     8 H
                                   12.37%     2 S               2.394  0.00     9 H
                                    7.12%     1 S              -6.532  1.00     4 H
                                    6.65%     2 P:y             4.589  0.00     2 C
                                    6.20%     1 P:x            -5.239  0.67     2 C
                                    5.97%     1 S              -6.532  1.00     5 H
                                    5.87%     1 P:y            -5.239  0.67     2 C
                                    4.54%     1 P:z            -5.239  0.67     3 C
                                    2.94%     2 S               2.394  0.00     4 H
                                   -2.71%     2 P:y             4.589  0.00     1 C
                                    2.66%     3 S               0.624  0.00    10 F
                                    2.64%     2 S               2.394  0.00     5 H
                                   -2.40%     3 S              10.158  0.00     1 C
                                    2.34%     2 P:x             4.589  0.00     2 C
                                    2.27%     1 P:x            -5.239  0.67     3 C
                                    2.02%     3 S              40.869  0.00     7 H
                                    2.00%     2 S             -13.620  2.00     1 C
                                   -1.68%     3 S              14.073  0.00    11 N
                                   -1.63%     2 P:x             4.589  0.00     1 C
                                    1.59%     1 P:x            -7.062  1.00    11 N
                                    1.33%     2 S               2.394  0.00     7 H
       1.262  0.00    35 A         31.90%     1 S              -6.532  1.00     6 H
                                  -26.79%     2 P:z             4.589  0.00     2 C
                                   23.80%     1 S              -6.532  1.00     4 H
                                   11.25%     1 S              -6.532  1.00     7 H
                                   10.16%     1 P:z            -5.239  0.67     2 C
                                    7.74%     1 S              -6.532  1.00     5 H
                                    5.43%     2 S               2.394  0.00     5 H
                                   -5.39%     3 S              10.158  0.00     1 C
                                    5.38%     2 S             -13.620  2.00     1 C
                                    5.19%     1 P:x            -5.239  0.67     3 C
                                    5.02%     2 S               2.394  0.00     4 H
                                    3.53%     2 S               2.394  0.00     7 H
                                    3.18%     2 S               2.394  0.00     6 H
                                    2.78%     1 S              -6.532  1.00     9 H
                                    2.54%     1 P:y            -5.239  0.67     3 C
                                   -2.10%     2 P:x             4.589  0.00     3 C
                                    2.09%     3 S              40.869  0.00     6 H
                                    2.07%     3 S              40.869  0.00     4 H
                                    1.85%     1 P:z            -5.239  0.67     3 C
                                    1.72%     2 P:z             4.589  0.00     3 C
                                    1.70%     1 P:y            -5.239  0.67     2 C
                                   -1.65%     2 S               2.394  0.00     9 H
                                   -1.33%     2 P:y             4.589  0.00     2 C
       1.570  0.00    36 A         24.17%     1 S              -6.532  1.00     8 H
                                   22.61%     1 S              -6.532  1.00     9 H
                                   18.60%     1 P:x            -5.239  0.67     2 C
                                  -18.09%     2 P:y             4.589  0.00     3 C
                                   13.28%     2 S               2.394  0.00     9 H
                                   10.43%     3 S               0.624  0.00    10 F
                                    5.97%     1 P:y            -5.239  0.67     3 C
                                    4.85%     2 S             -18.450  2.00    11 N
                                    3.28%     2 S               2.394  0.00     7 H
                                   -2.99%     2 P:y             4.589  0.00     1 C
                                    2.68%     1 S              -6.532  1.00     4 H
                                    2.58%     2 S             -13.620  2.00     2 C
                                   -2.54%     2 P:z             4.589  0.00     3 C
                                   -2.44%     2 P:x             4.589  0.00     2 C
                                    2.03%     2 S               2.394  0.00     8 H
                                    1.98%     2 S             -13.620  2.00     1 C
                                   -1.86%     3 S              14.073  0.00    11 N
                                    1.51%     1 P:x            11.051  0.00     6 H
                                    1.43%     3 S              40.869  0.00     9 H
                                    1.38%     2 P:y             4.589  0.00     2 C
                                    1.23%     3 S              40.869  0.00     8 H
       1.930  0.00    37 A         48.79%     3 S               0.624  0.00    10 F
                                   18.63%     2 S               2.394  0.00     8 H
                                   18.23%     1 S              -6.532  1.00     8 H
                                   -9.85%     2 P:y             4.589  0.00     3 C
                                    8.48%     2 S             -18.450  2.00    11 N
                                    8.05%     1 S              -6.532  1.00     9 H
                                   -7.65%     2 S               2.394  0.00     9 H
                                    7.37%     1 P:x            -5.239  0.67     2 C
                                   -5.46%     2 P:x             4.589  0.00     2 C
                                    3.84%     1 P:y            -5.239  0.67     2 C
                                    3.43%     1 P:y            -5.239  0.67     3 C
                                   -3.25%     2 P:x             4.589  0.00     3 C
                                   -2.72%     3 S              10.158  0.00     1 C
                                   -2.71%     2 P:x             4.589  0.00     1 C
                                    2.70%     2 S               2.394  0.00     5 H
                                    2.36%     2 S               2.394  0.00     7 H
                                    2.07%     1 S              -6.532  1.00     4 H
                                   -2.03%     2 P:x            11.654  0.00    10 F
                                    1.95%     2 P:x             7.649  0.00    11 N
                                   -1.79%     2 S               2.394  0.00     4 H
                                    1.64%     1 P:z            -9.020  1.33    13 O
                                   -1.61%     3 S              14.073  0.00    11 N
                                   -1.51%     3 S              21.524  0.00    12 O
                                    1.34%     2 P:x             9.437  0.00    12 O
                                    1.31%     1 P:z            -5.239  0.67     3 C
                                   -1.10%     2 P:y             7.649  0.00    11 N
                                    1.03%     3 S              40.869  0.00     9 H



 =======================================================================
 Electrostatic potential at the Nuclei due to electrons and other nuclei
 =======================================================================
  
         Atom                  Potential
         ----                  ---------
     1)   C                  14.67257626
     2)   H                   1.05908603
     3)   F                  26.69428124
     4)   C                  14.70492782
     5)   H                   1.05622322
     6)   H                   1.05212258
     7)   C                  14.76423892
     8)   H                   1.08127615
     9)   H                   1.08837218
    10)   H                   1.09120033
    11)   N                  18.18551176
    12)   O                  22.36626344
    13)   O                  22.36578637
 Mulliken charges used for AMS results%charges...


    =====================
     CALCULATION RESULTS
    =====================

Energy (hartree)            -2.52281980


--------------
Atomic charges
--------------
  Index   Atom    Charge
      1      C    0.5155
      2      H   -0.1738
      3      F   -0.4580
      4      C    0.4915
      5      H   -0.1623
      6      H   -0.1609
      7      C    0.6949
      8      H   -0.2289
      9      H   -0.1492
     10      H   -0.1954
     11      N    0.5806
     12      O   -0.3851
     13      O   -0.3687


Dipole moment vector    (Debye):     4.71588932   -1.96164328    2.18302716
              magnitude (Debye):     5.55457145


-----------------------
Molecular orbitals info
-----------------------
n orbitals:              248
n spin:                    1

Note: only printing virtual orbitals with
      energy smaller than HOMO + 100. eV

HOMO (eV):              -6.8295
LUMO (eV):              -3.1630
HOMO-LUMO gap (eV):      3.6665

   Index   Energy (eV)    Occupation
     155       92.7260         0.000       
     154       92.4293         0.000       
     153       91.4353         0.000       
     152       91.2087         0.000       
     151       90.3660         0.000       
     150       89.6512         0.000       
     149       88.4058         0.000       
     148       86.9624         0.000       
     147       85.2521         0.000       
     146       83.6712         0.000       
     145       81.7334         0.000       
     144       81.5940         0.000       
     143       80.4669         0.000       
     142       79.5597         0.000       
     141       79.0115         0.000       
     140       77.5997         0.000       
     139       77.1742         0.000       
     138       76.8898         0.000       
     137       76.8202         0.000       
     136       75.3537         0.000       
     135       74.5427         0.000       
     134       73.7753         0.000       
     133       71.8363         0.000       
     132       69.0640         0.000       
     131       67.3065         0.000       
     130       66.1524         0.000       
     129       65.6621         0.000       
     128       64.4237         0.000       
     127       62.8768         0.000       
     126       61.9915         0.000       
     125       61.0088         0.000       
     124       60.1899         0.000       
     123       58.6757         0.000       
     122       57.9513         0.000       
     121       57.3848         0.000       
     120       56.7745         0.000       
     119       56.6221         0.000       
     118       55.5042         0.000       
     117       54.8051         0.000       
     116       53.8486         0.000       
     115       53.2491         0.000       
     114       52.4322         0.000       
     113       51.7427         0.000       
     112       50.7875         0.000       
     111       50.1192         0.000       
     110       48.7571         0.000       
     109       48.0017         0.000       
     108       47.3811         0.000       
     107       46.3930         0.000       
     106       45.0897         0.000       
     105       44.8309         0.000       
     104       44.3402         0.000       
     103       43.2889         0.000       
     102       42.6968         0.000       
     101       41.2968         0.000       
     100       41.1386         0.000       
      99       39.5298         0.000       
      98       38.5882         0.000       
      97       37.6808         0.000       
      96       36.6555         0.000       
      95       36.1570         0.000       
      94       35.7241         0.000       
      93       35.4820         0.000       
      92       34.4692         0.000       
      91       33.6955         0.000       
      90       33.1362         0.000       
      89       32.9215         0.000       
      88       32.6420         0.000       
      87       31.6537         0.000       
      86       30.9887         0.000       
      85       30.0597         0.000       
      84       29.5131         0.000       
      83       29.2989         0.000       
      82       28.2320         0.000       
      81       27.9571         0.000       
      80       27.1029         0.000       
      79       26.6653         0.000       
      78       26.3100         0.000       
      77       25.2978         0.000       
      76       24.8035         0.000       
      75       24.1881         0.000       
      74       23.2644         0.000       
      73       23.0456         0.000       
      72       22.3529         0.000       
      71       21.2455         0.000       
      70       20.2139         0.000       
      69       19.8306         0.000       
      68       19.0702         0.000       
      67       18.2619         0.000       
      66       17.3259         0.000       
      65       16.6892         0.000       
      64       15.9332         0.000       
      63       14.6487         0.000       
      62       13.0304         0.000       
      61       12.5905         0.000       
      60       11.8796         0.000       
      59       11.2280         0.000       
      58       11.0422         0.000       
      57       10.8486         0.000       
      56       10.4065         0.000       
      55       10.1595         0.000       
      54       10.1040         0.000       
      53        9.8022         0.000       
      52        9.3196         0.000       
      51        8.9206         0.000       
      50        8.5593         0.000       
      49        7.3319         0.000       
      48        7.0253         0.000       
      47        6.9077         0.000       
      46        6.3107         0.000       
      45        5.8754         0.000       
      44        5.4236         0.000       
      43        4.5750         0.000       
      42        4.3615         0.000       
      41        3.9106         0.000       
      40        3.4454         0.000       
      39        2.9421         0.000       
      38        2.7493         0.000       
      37        1.9304         0.000       
      36        1.5701         0.000       
      35        1.2622         0.000       
      34        1.0245         0.000       
      33        0.2736         0.000       
      32        0.0404         0.000       
      31       -0.4957         0.000       
      30       -2.4274         0.000       
      29       -3.1630         0.000 < LUMO
      28       -6.8295         2.000 < HOMO
      27       -7.3632         2.000       
      26       -7.6693         2.000       
      25       -8.1058         2.000       
      24       -8.1880         2.000       
      23       -9.6521         2.000       
      22       -9.7487         2.000       
      21      -10.2220         2.000       
      20      -11.2312         2.000       
      19      -11.3809         2.000       
      18      -12.2250         2.000       
      17      -12.9603         2.000       
      16      -13.3055         2.000       
      15      -13.6101         2.000       
      14      -14.9701         2.000       
      13      -16.5219         2.000       
      12      -19.1114         2.000       
      11      -21.2009         2.000       
      10      -26.4238         2.000       
       9      -27.7475         2.000       
       8      -30.8406         2.000       
       7     -270.6040         2.000       
       6     -272.2604         2.000       
       5     -273.2052         2.000       
       4     -387.8643         2.000       
       3     -512.5482         2.000       
       2     -512.5699         2.000       
       1     -660.2610         2.000       

AMS application finished. Exiting.
NORMAL TERMINATION
     Total cpu time:      41.05
  Total system time:       0.37
 Total elapsed time:      41.57
NORMAL TERMINATION
