19
Coordinates from ORCA-job ts_scan Relaxed Surface Scan Step 1 E -77.951111128256
  C       0.045639     -1.463595     -0.696249
  C      -0.668628     -0.451160     -0.223216
  C      -1.782125      0.148572     -1.032930
  C      -2.479020      1.345582     -0.464249
  O      -2.090032     -0.329999     -2.095897
  O      -0.493611      0.176558      0.964141
  C       0.725464     -0.071862      1.649166
  C       1.865254      0.433668      0.833416
  C       2.693572     -0.353700      0.173571
  H      -0.231735     -1.844874     -1.667616
  H       0.816545     -1.968480     -0.150817
  H      -1.765538      2.150646     -0.299276
  H      -3.255719      1.662211     -1.152504
  H      -2.906018      1.102919      0.506881
  H       0.633050      0.463404      2.591037
  H       0.825589     -1.136155      1.870511
  H       1.917558      1.508801      0.704043
  H       3.468725      0.056433     -0.460354
  H       2.681027     -1.428968      0.279954
>
19
Coordinates from ORCA-job ts_scan Relaxed Surface Scan Step 2 E -77.948326968197
  C       0.063971     -1.484919     -0.658676
  C      -0.660970     -0.476206     -0.194855
  C      -1.736237      0.149865     -1.034067
  C      -2.433993      1.350414     -0.474198
  O      -2.014794     -0.311207     -2.112876
  O      -0.511147      0.132840      1.005635
  C       0.722037     -0.082484      1.682359
  C       1.829837      0.444332      0.838179
  C       2.610788     -0.326510      0.104092
  H      -0.179850     -1.850239     -1.645179
  H       0.793656     -2.017150     -0.083929
  H      -1.714864      2.142939     -0.276351
  H      -3.183174      1.686455     -1.183361
  H      -2.895947      1.102832      0.479570
  H       0.626525      0.458493      2.620233
  H       0.849111     -1.142147      1.910858
  H       1.873591      1.521945      0.728471
  H       3.344301      0.102777     -0.566692
  H       2.617157     -1.402029      0.190399
>
19
Coordinates from ORCA-job ts_scan Relaxed Surface Scan Step 3 E -77.944880679210
  C       0.086109     -1.499742     -0.627819
  C      -0.653933     -0.499324     -0.170219
  C      -1.693383      0.151085     -1.033805
  C      -2.391993      1.354137     -0.480473
  O      -1.943210     -0.292240     -2.127229
  O      -0.527489      0.089642      1.042831
  C       0.719296     -0.091023      1.711604
  C       1.795532      0.452188      0.839393
  C       2.528429     -0.306540      0.044001
  H      -0.122481     -1.849332     -1.628140
  H       0.776144     -2.055820     -0.027330
  H      -1.668831      2.134675     -0.251844
  H      -3.115379      1.708570     -1.207244
  H      -2.885158      1.101697      0.456275
  H       0.619902      0.458660      2.643622
  H       0.872249     -1.144855      1.950093
  H       1.828031      1.531008      0.738466
  H       3.218006      0.138260     -0.662830
  H       2.558155     -1.381047      0.120262
>
19
Coordinates from ORCA-job ts_scan Relaxed Surface Scan Step 4 E -77.940685621809
  C       0.112866     -1.504247     -0.606188
  C      -0.646365     -0.516788     -0.151370
  C      -1.653843      0.155478     -1.033739
  C      -2.358337      1.355705     -0.481707
  O      -1.876800     -0.270027     -2.140265
  O      -0.540737      0.052111      1.073175
  C       0.717792     -0.095132      1.736089
  C       1.765125      0.456502      0.836653
  C       2.452583     -0.299557     -0.002497
  H      -0.061855     -1.837335     -1.618709
  H       0.765209     -2.082971      0.014526
  H      -1.635799      2.127458     -0.223062
  H      -3.059788      1.726075     -1.221910
  H      -2.877741      1.093937      0.438170
  H       0.614647      0.465818      2.660630
  H       0.892696     -1.142517      1.986932
  H       1.780831      1.534903      0.728159
  H       3.097884      0.151705     -0.746552
  H       2.511629     -1.371120      0.081275
>
19
Coordinates from ORCA-job ts_scan Relaxed Surface Scan Step 5 E -77.935673594963
  C       0.142052     -1.503753     -0.590652
  C      -0.639268     -0.532679     -0.136229
  C      -1.617171      0.160902     -1.032932
  C      -2.328100      1.356801     -0.479651
  O      -1.813474     -0.244935     -2.152178
  O      -0.552056      0.014865      1.098887
  C       0.717544     -0.096871      1.757480
  C       1.736291      0.460116      0.831865
  C       2.379862     -0.299802     -0.040461
  H       0.000559     -1.819472     -1.614023
  H       0.757553     -2.104853      0.046397
  H      -1.607538      2.120569     -0.193050
  H      -3.010069      1.742338     -1.230258
  H      -2.870069      1.084833      0.424108
  H       0.607655      0.476891      2.672999
  H       0.913836     -1.136952      2.022046
  H       1.728194      1.536629      0.705538
  H       2.977600      0.151368     -0.823702
  H       2.476599     -1.365994      0.063425
>
19
Coordinates from ORCA-job ts_scan Relaxed Surface Scan Step 6 E -77.929794821501
  C       0.173331     -1.498341     -0.581271
  C      -0.631896     -0.546013     -0.125115
  C      -1.583416      0.167629     -1.031975
  C      -2.302503      1.356978     -0.474983
  O      -1.754069     -0.217597     -2.163063
  O      -0.559753     -0.019239      1.118722
  C       0.719250     -0.095301      1.776358
  C       1.711668      0.463409      0.827231
  C       2.311182     -0.307440     -0.070048
  H       0.061378     -1.796049     -1.613844
  H       0.752319     -2.123428      0.066990
  H      -1.585827      2.114213     -0.162235
  H      -2.967848      1.756277     -1.233288
  H      -2.863502      1.073222      0.413401
  H       0.599164      0.491912      2.681668
  H       0.934763     -1.127590      2.055543
  H       1.674206      1.535981      0.675293
  H       2.859053      0.136170     -0.893378
  H       2.452498     -1.364794      0.063606
>
19
Coordinates from ORCA-job ts_scan Relaxed Surface Scan Step 7 E -77.923093661937
  C       0.206104     -1.490828     -0.576973
  C      -0.625477     -0.560175     -0.116512
  C      -1.552396      0.173738     -1.030336
  C      -2.277321      1.357383     -0.468630
  O      -1.699837     -0.190974     -2.171898
  O      -0.565991     -0.055189      1.134561
  C       0.722712     -0.091592      1.793399
  C       1.688391      0.468575      0.822887
  C       2.243714     -0.318363     -0.093786
  H       0.120837     -1.769671     -1.617512
  H       0.747526     -2.142417      0.078227
  H      -1.563356      2.107739     -0.133541
  H      -2.928227      1.770110     -1.232279
  H      -2.854049      1.063674      0.406296
  H       0.587321      0.508905      2.687364
  H       0.957893     -1.115211      2.087424
  H       1.615550      1.534746      0.641323
  H       2.739266      0.111585     -0.956733
  H       2.437338     -1.362037      0.076330
>
19
Coordinates from ORCA-job ts_scan Relaxed Surface Scan Step 8 E -77.915746014130
  C       0.239755     -1.480638     -0.574417
  C      -0.619631     -0.572204     -0.109605
  C      -1.524606      0.179668     -1.028567
  C      -2.255714      1.357492     -0.462615
  O      -1.651072     -0.166933     -2.178758
  O      -0.569145     -0.086268      1.145480
  C       0.728579     -0.086141      1.808683
  C       1.670526      0.473413      0.820916
  C       2.178840     -0.332694     -0.113793
  H       0.175156     -1.742472     -1.621089
  H       0.741845     -2.161457      0.083345
  H      -1.545106      2.101648     -0.106886
  H      -2.893428      1.782232     -1.230809
  H      -2.846752      1.054344      0.399404
  H       0.575617      0.526189      2.691275
  H       0.978782     -1.101834      2.116430
  H       1.561900      1.531481      0.611285
  H       2.624019      0.082342     -1.010919
  H       2.430432     -1.358168      0.090252
>
19
Coordinates from ORCA-job ts_scan Relaxed Surface Scan Step 9 E -77.908034552992
  C       0.273942     -1.468736     -0.572062
  C      -0.615879     -0.583278     -0.103120
  C      -1.500660      0.184409     -1.026674
  C      -2.236835      1.357664     -0.457980
  O      -1.608227     -0.147313     -2.183680
  O      -0.571764     -0.115006      1.152793
  C       0.737530     -0.079883      1.822528
  C       1.656934      0.477976      0.821252
  C       2.115659     -0.348619     -0.132271
  H       0.224774     -1.716526     -1.623248
  H       0.732786     -2.181360      0.085130
  H      -1.528984      2.095626     -0.083966
  H      -2.861943      1.793402     -1.230377
  H      -2.841172      1.047188      0.392072
  H       0.564227      0.542844      2.693469
  H       0.997755     -1.088826      2.142355
  H       1.514875      1.527419      0.588627
  H       2.516228      0.054118     -1.055670
  H       2.430751     -1.351098      0.100431
>
19
Coordinates from ORCA-job ts_scan Relaxed Surface Scan Step 10 E -77.900479201316
  C       0.309144     -1.455063     -0.569142
  C      -0.614871     -0.592919     -0.096610
  C      -1.482379      0.187040     -1.024969
  C      -2.221457      1.358160     -0.456110
  O      -1.573830     -0.134765     -2.186660
  O      -0.576384     -0.142175      1.156413
  C       0.750437     -0.073224      1.836198
  C       1.647677      0.480955      0.825423
  C       2.055099     -0.366076     -0.149918
  H       0.269149     -1.692439     -1.623456
  H       0.719323     -2.202543      0.083866
  H      -1.515204      2.089610     -0.066261
  H      -2.833954      1.803793     -1.232953
  H      -2.838720      1.043458      0.382965
  H       0.553115      0.558845      2.694487
  H       1.013058     -1.077518      2.166153
  H       1.478574      1.522981      0.577028
  H       2.420970      0.032347     -1.089522
  H       2.440253     -1.340466      0.102680
>
19
Coordinates from ORCA-job ts_scan Relaxed Surface Scan Step 11 E -77.893845201930
  C       0.343639     -1.449612     -0.573086
  C      -0.621776     -0.613828     -0.089870
  C      -1.465143      0.189676     -1.024494
  C      -2.201634      1.359303     -0.450871
  O      -1.537774     -0.116908     -2.191720
  O      -0.603287     -0.208638      1.159302
  C       0.781253     -0.051750      1.856426
  C       1.632143      0.488625      0.829308
  C       1.989502     -0.388277     -0.167249
  H       0.312107     -1.667947     -1.632203
  H       0.692718     -2.242929      0.065299
  H      -1.494952      2.071819     -0.027788
  H      -2.788345      1.830019     -1.232791
  H      -2.843754      1.036202      0.366034
  H       0.529748      0.600176      2.683569
  H       1.043557     -1.046993      2.207138
  H       1.441692      1.522740      0.563135
  H       2.329928      0.009587     -1.116698
  H       2.460377     -1.321265      0.106170
>
19
Coordinates from ORCA-job ts_scan Relaxed Surface Scan Step 12 E -77.955478326766
  C       0.341367     -1.457248     -1.049531
  C      -0.880479     -0.896914     -0.443867
  C      -1.240946      0.554720     -0.804850
  C      -2.303519      1.200417      0.017573
  O      -0.676611      1.095723     -1.720468
  O      -1.581441     -1.491836      0.337909
  C       1.325379      0.909482      1.683964
  C       1.699728      0.392981      0.522658
  C       1.682868     -1.054134      0.234164
  H       0.637736     -0.976783     -1.973418
  H       0.312719     -2.539616     -1.094474
  H      -1.976418      1.244542      1.055481
  H      -2.496979      2.198690     -0.360429
  H      -3.207656      0.595923      0.001761
  H       1.351670      1.976900      1.858049
  H       0.988652      0.280108      2.499111
  H       2.026159      1.048540     -0.276715
  H       2.586848     -1.415765     -0.246381
  H       1.410919     -1.665729      1.089074
