srun: Job 662082 step creation temporarily disabled, retrying (Requested nodes are busy)
srun: Job 662082 step creation still disabled, retrying (Requested nodes are busy)
srun: Job 662082 step creation still disabled, retrying (Requested nodes are busy)
srun: Job 662082 step creation still disabled, retrying (Requested nodes are busy)
srun: Job 662082 step creation still disabled, retrying (Requested nodes are busy)
srun: Job 662082 step creation still disabled, retrying (Requested nodes are busy)
srun: Job 662082 step creation still disabled, retrying (Requested nodes are busy)
srun: Job 662082 step creation still disabled, retrying (Requested nodes are busy)
srun: Job 662082 step creation still disabled, retrying (Requested nodes are busy)
srun: Job 662082 step creation still disabled, retrying (Requested nodes are busy)
srun: Job 662082 step creation still disabled, retrying (Requested nodes are busy)
srun: Job 662082 step creation still disabled, retrying (Requested nodes are busy)
srun: Job 662082 step creation still disabled, retrying (Requested nodes are busy)
srun: Job 662082 step creation still disabled, retrying (Requested nodes are busy)
srun: Job 662082 step creation still disabled, retrying (Requested nodes are busy)
srun: Job 662082 step creation still disabled, retrying (Requested nodes are busy)
srun: Job 662082 step creation still disabled, retrying (Requested nodes are busy)
srun: Job 662082 step creation still disabled, retrying (Requested nodes are busy)
srun: Job 662082 step creation still disabled, retrying (Requested nodes are busy)
srun: Step created for StepId=662082.8

 *******************************************************************************
 *                                                                             *
 *  --------------------------------                                           *
 *   Amsterdam Modeling Suite (AMS)              2026.103                      *
 *  --------------------------------                                           *
 *                                               r260501 2026-05-01 873454b5   *
 *                                                                             *
 *                                                                             *
 *                              =================                              *
 *                              |               |                              *
 *                              |     A M S     |                              *
 *                              |               |                              *
 *                              =================                              *
 *                                                                             *
 *                                                                             *
 *   Online information and documentation:  https://www.scm.com/support/       *
 *   E-mail:  support@scm.com   info@scm.com                                   *
 *                                                                             *
 *   Scientific publications using AMS results must be properly referenced     *
 *   See the User Manuals (or the web site) for recommended citations          *
 *   The terms and conditions of the End User License Agreement apply to       *
 *   the use of AMS, https://www.scm.com/license-terms/                        *
 *                                                                             *
 **********************  x86_64_linux_intel / intelmpi  ************************
 
 Licensed to: Jong-June Jeon / University of Seoul 2026-06-02 13:44:15
 SCM User ID: u30731
  
 AMS 2026.103  RunTime: Jun02-2026 23:30:29  ShM Nodes: 1  Procs: 1

 AMS jobname: c2_fragB_ts
 AMS jobid  : 1611777443

 Start   directory: /gpfs/home1/yeseo1ee/projects/eda-asm-prediction/ADF_800/adf_outputs/batch_002/dipolar_005104/
 Results directory: /gpfs/home1/yeseo1ee/projects/eda-asm-prediction/ADF_800/adf_outputs/batch_002/dipolar_005104/c2_fragB_ts.results/
 Scratch directory: /tmp/amstmp_c2_fragB_ts_kid0.1611777443/

 RNG seed: 1462877480 -1795126282 -1555503927 -1656977523 -546629860 -40504874 1193323587 -1535584822



                      ************************************************************************
                      *  ADF 2026.103  RunTime: Jun02-2026 23:30:29  ShM Nodes: 1  Procs: 1  *
                      ************************************************************************
  

       ****************************
       * SINGLE POINT CALCULATION *
       ****************************

--------
Geometry
--------
Formula: C9H14
Atoms
  Index Symbol   x (angstrom)   y (angstrom)   z (angstrom)
      1      C     4.43880000     1.77845000     0.59236000
      2      C     3.72562000     0.94632000    -0.20072000
      3      C     4.00274000     0.83776000    -1.67851000
      4      C     2.63453000     0.16210000     0.36286000
      5      C     1.82799000    -0.68697000    -0.33321000
      6      C     0.69337000    -1.34937000     0.24778000
      7      C    -0.08545000    -2.35680000    -0.37336000
      8      C    -0.63543000    -3.45312000     0.50956000
      9      C     0.21903000    -2.75309000    -1.79572000
     10      H     5.24555000     2.39847000     0.19173000
     11      H     4.22354000     1.85982000     1.66209000
     12      H     3.10835000     1.10762000    -2.26492000
     13      H     4.26277000    -0.19603000    -1.96069000
     14      H     4.82954000     1.49614000    -1.98022000
     15      H     2.44509000     0.30019000     1.43264000
     16      H     2.01081000    -0.83654000    -1.39919000
     17      H     0.57357000    -1.23997000     1.32912000
     18      H    -1.49982000    -3.95040000     0.04906000
     19      H     0.15059000    -4.21533000     0.66050000
     20      H    -0.92517000    -3.06879000     1.49815000
     21      H     1.16252000    -3.32560000    -1.82243000
     22      H     0.33539000    -1.87942000    -2.45067000
     23      H    -0.57726000    -3.38766000    -2.20271000

Total System Charge              0.00000


----------------
ADF Engine Input
----------------
 
   Basis
     Type TZ2P
     Core None
   End
   XC
     GGA BLYP
     Dispersion GRIMME3 BJDAMP
   End
   Symmetry NOSYM
   NumericalQuality Normal
   Unrestricted No
   SCF
     Iterations 200
     Converge 1.0e-6
   End
   Save TAPE21
 

 Title: *** (NO TITLE) ***

 *** adf ***



 ===========================
 A T T A C H E D   F I L E S
 ===========================
  



 ===============================
 M O D E L   P A R A M E T E R S
 ===============================
  
 DENSITY FUNCTIONAL POTENTIAL (scf)
    LDA:                               Exchange only                           == Not Default ==
    Gradient Corrections:              Becke88 LYP                             == Not Default ==

 SPIN  (restricted / unrestr.)
    Molecule:                          Restricted                               
    Fragments:                         Restricted                               

 OTHER ASPECTS
    Relativistic Corrections:          scalar (ZORA,MAPA)                       

    Nuclear Charge Density Model:      Point Charge Nuclei                      
    Core Treatment:                    Frozen Orbital(s)                        

    Hyperfine or Zeeman Interaction:   ---                                      

 Settings for Grimme D3 dispersion correction

      damping                        BJ
      s6                          1.000
      s8                          2.700
      a1                          0.430
      a2                          4.236

 Other (technical) parameters

      alpha                      14.000
      version                         4
 


 Fragment File(s)
 ----------------
 C:
         file : /gpfs/home1/yeseo1ee/projects/eda-asm-prediction/ADF_800/adf_outputs/batch_002/dipolar_005104/c2_fragB_ts.results/t21.50BA88D5.C
         jobid: 0
         title: Carbon (TZ2P)
 H:
         file : /gpfs/home1/yeseo1ee/projects/eda-asm-prediction/ADF_800/adf_outputs/batch_002/dipolar_005104/c2_fragB_ts.results/t21.6F35CCAB.H
         jobid: 0
         title: Hydrogen (TZ2P)



 ===============
 G E O M E T R Y  ***  3D  Molecule  ***
 ===============
  

 ATOMS
 =====                            X Y Z                    CHARGE
                                (Angstrom)             Nucl     +Core       At.Mass
                       --------------------------    ----------------       -------
    1  C               4.4388    1.7785    0.5924      6.00      6.00       12.0000
    2  C               3.7256    0.9463   -0.2007      6.00      6.00       12.0000
    3  C               4.0027    0.8378   -1.6785      6.00      6.00       12.0000
    4  C               2.6345    0.1621    0.3629      6.00      6.00       12.0000
    5  C               1.8280   -0.6870   -0.3332      6.00      6.00       12.0000
    6  C               0.6934   -1.3494    0.2478      6.00      6.00       12.0000
    7  C              -0.0854   -2.3568   -0.3734      6.00      6.00       12.0000
    8  C              -0.6354   -3.4531    0.5096      6.00      6.00       12.0000
    9  C               0.2190   -2.7531   -1.7957      6.00      6.00       12.0000
   10  H               5.2455    2.3985    0.1917      1.00      1.00        1.0078
   11  H               4.2235    1.8598    1.6621      1.00      1.00        1.0078
   12  H               3.1083    1.1076   -2.2649      1.00      1.00        1.0078
   13  H               4.2628   -0.1960   -1.9607      1.00      1.00        1.0078
   14  H               4.8295    1.4961   -1.9802      1.00      1.00        1.0078
   15  H               2.4451    0.3002    1.4326      1.00      1.00        1.0078
   16  H               2.0108   -0.8365   -1.3992      1.00      1.00        1.0078
   17  H               0.5736   -1.2400    1.3291      1.00      1.00        1.0078
   18  H              -1.4998   -3.9504    0.0491      1.00      1.00        1.0078
   19  H               0.1506   -4.2153    0.6605      1.00      1.00        1.0078
   20  H              -0.9252   -3.0688    1.4982      1.00      1.00        1.0078
   21  H               1.1625   -3.3256   -1.8224      1.00      1.00        1.0078
   22  H               0.3354   -1.8794   -2.4507      1.00      1.00        1.0078
   23  H              -0.5773   -3.3877   -2.2027      1.00      1.00        1.0078


 FRAGMENTS
 =========                                     Atoms in this Fragment     Cart. coord.s (Angstrom)
                                               -------------------------------------------------------
    1  C                                                 1  C            4.4388    1.7785    0.5924
    2  C                                                 2  C            3.7256    0.9463   -0.2007
    3  C                                                 3  C            4.0027    0.8378   -1.6785
    4  C                                                 4  C            2.6345    0.1621    0.3629
    5  C                                                 5  C            1.8280   -0.6870   -0.3332
    6  C                                                 6  C            0.6934   -1.3494    0.2478
    7  C                                                 7  C           -0.0854   -2.3568   -0.3734
    8  C                                                 8  C           -0.6354   -3.4531    0.5096
    9  C                                                 9  C            0.2190   -2.7531   -1.7957
   10  H                                                10  H            5.2455    2.3985    0.1917
   11  H                                                11  H            4.2235    1.8598    1.6621
   12  H                                                12  H            3.1083    1.1076   -2.2649
   13  H                                                13  H            4.2628   -0.1960   -1.9607
   14  H                                                14  H            4.8295    1.4961   -1.9802
   15  H                                                15  H            2.4451    0.3002    1.4326
   16  H                                                16  H            2.0108   -0.8365   -1.3992
   17  H                                                17  H            0.5736   -1.2400    1.3291
   18  H                                                18  H           -1.4998   -3.9504    0.0491
   19  H                                                19  H            0.1506   -4.2153    0.6605
   20  H                                                20  H           -0.9252   -3.0688    1.4982
   21  H                                                21  H            1.1625   -3.3256   -1.8224
   22  H                                                22  H            0.3354   -1.8794   -2.4507
   23  H                                                23  H           -0.5773   -3.3877   -2.2027



 =====================================
 S Y M M E T R Y ,   E L E C T R O N S
 =====================================
  
 Symmetry: NOSYM

 Irreducible Representations, including subspecies
 -------------------------------------------------
 A


 Configuration of Valence Electrons
 ==================================
 ( determined in the SCF procedure )

 Total:   68

 Net Charge: 0 (Nuclei minus Electrons)

 Aufbau principle for MO occupations will be applied through SCF cycle no.     100
 Thereafter, the program will assign electrons to MOs that are spatially
 similar to the occupied MOs in a "reference" cycle ("KeepOrbitals").
 The reference cycle is always the PREVIOUS cycle: it will evolve with
 the SCF procedure.
 ***************************************************************************************************



                                      ****************************************
                                      *  B U I L D : (Fragments, Functions)  *
                                      ****************************************
  



 =======
 S F O s  ***  (Symmetrized Fragment Orbitals)  ***
 =======
  
 SFOs are linear combinations of (valence) Fragment Orbitals (FOs), such that the SFOs transform as the
 irreducible representations of the (molecular) symmetry group. Each SFO is therefore characterized by
 an irrep of the molecule and by a few (or only one) generating FOs.
 The SFOs constitute a symmetry-adapted basis for the Fock matrix. The MO eigenvector coefficients in
 this basis provide a direct interpretation of the MOs in terms of Frontier Orbital Theory.

 The SFOs are combined with auxiliary Core Functions (CFs) to ensure orthogonalization on the (frozen)
 Core Orbitals (COs). The Core-orthogonalized SFOs (CSFOs) constitute the true Fock basis.

 The FOs, and hence also the (C)SFOs are combinations of the elementary basis functions (BAS). The basis
 functions that participate in the description of the SFOs depend on the irrep. The indices of the
 involved functions are printed below for each irrep.
 (The complete list of primitive basis functions is printed in another section)

 Total nr. of (C)SFOs (summation over all irreps) :   388

 NOTE: a (C)SFO that is defined as a combination of more than one FO is usually NOT normalized.



                                       === A ===
 Nr. of SFOs :  388
 Cartesian basis functions that participate in this irrep (total number =   438) :
      1     2     3     4     5     6     9    12     7    10
     13     8    11    14    15    16    17    18    19    20
     21    22    23    24    25    26    27    28    29    30
     31    32    33    34    35    36    39    42    37    40
     43    38    41    44    45    46    47    48    49    50
     51    52    53    54    55    56    57    58    59    60
     61    62    63    64    65    66    69    72    67    70
     73    68    71    74    75    76    77    78    79    80
     81    82    83    84    85    86    87    88    89    90
     91    92    93    94    95    96    99   102    97   100
    103    98   101   104   105   106   107   108   109   110
    111   112   113   114   115   116   117   118   119   120
    121   122   123   124   125   126   129   132   127   130
    133   128   131   134   135   136   137   138   139   140
    141   142   143   144   145   146   147   148   149   150
    151   152   153   154   155   156   159   162   157   160
    163   158   161   164   165   166   167   168   169   170
    171   172   173   174   175   176   177   178   179   180
    181   182   183   184   185   186   189   192   187   190
    193   188   191   194   195   196   197   198   199   200
    201   202   203   204   205   206   207   208   209   210
    211   212   213   214   215   216   219   222   217   220
    223   218   221   224   225   226   227   228   229   230
    231   232   233   234   235   236   237   238   239   240
    241   242   243   244   245   246   249   252   247   250
    253   248   251   254   255   256   257   258   259   260
    261   262   263   264   265   266   267   268   269   270
    271   272   273   274   275   276   277   278   279   280
    281   282   283   284   285   286   287   288   289   290
    291   292   293   294   295   296   297   298   299   300
    301   302   303   304   305   306   307   308   309   310
    311   312   313   314   315   316   317   318   319   320
    321   322   323   324   325   326   327   328   329   330
    331   332   333   334   335   336   337   338   339   340
    341   342   343   344   345   346   347   348   349   350
    351   352   353   354   355   356   357   358   359   360
    361   362   363   364   365   366   367   368   369   370
    371   372   373   374   375   376   377   378   379   380
    381   382   383   384   385   386   387   388   389   390
    391   392   393   394   395   396   397   398   399   400
    401   402   403   404   405   406   407   408   409   410
    411   412   413   414   415   416   417   418   419   420
    421   422   423   424   425   426   427   428   429   430
    431   432   433   434   435   436   437   438

    SFO  (index         Fragment          Generating    Expansion in Fragment Orbitals
  indx  incl.CFs)   Occup   Orb.Energy   FragmentType  Coeff.   Orbital     on Fragment
 --------------------------------------------------------------------------------------
     1       1      2.000     -10.066 au  C             1.00      1 S               1
                        (    -273.921 eV)
     2       2      2.000      -0.501 au  C             1.00      2 S               1
                        (     -13.620 eV)
     3       3       --         0.373 au  C             1.00      3 S               1
                        (      10.158 eV)
     4       4       --         5.405 au  C             1.00      4 S               1
                        (     147.073 eV)
     5       5       --        49.848 au  C             1.00      5 S               1
                        (    1356.422 eV)
     6       6      0.667      -0.193 au  C             1.00      1 P:x             1
                        (      -5.239 eV)
     7       7       --         0.169 au  C             1.00      2 P:x             1
                        (       4.589 eV)
     8       8       --         2.013 au  C             1.00      3 P:x             1
                        (      54.789 eV)
     9       9      0.667      -0.193 au  C             1.00      1 P:y             1
                        (      -5.239 eV)
    10      10       --         0.169 au  C             1.00      2 P:y             1
                        (       4.589 eV)
    11      11       --         2.013 au  C             1.00      3 P:y             1
                        (      54.789 eV)
    12      12      0.667      -0.193 au  C             1.00      1 P:z             1
                        (      -5.239 eV)
    13      13       --         0.169 au  C             1.00      2 P:z             1
                        (       4.589 eV)
    14      14       --         2.013 au  C             1.00      3 P:z             1
                        (      54.789 eV)
    15      15       --         1.243 au  C             1.00      1 D:z2            1
                        (      33.824 eV)
    16      16       --         1.243 au  C             1.00      1 D:x2-y2         1
                        (      33.824 eV)
    17      17       --         1.243 au  C             1.00      1 D:xy            1
                        (      33.824 eV)
    18      18       --         1.243 au  C             1.00      1 D:xz            1
                        (      33.824 eV)
    19      19       --         1.243 au  C             1.00      1 D:yz            1
                        (      33.824 eV)
    20      20       --         4.016 au  C             1.00      1 F:z3            1
                        (     109.271 eV)
    21      21       --         4.016 au  C             1.00      1 F:z             1
                        (     109.271 eV)
    22      22       --         4.016 au  C             1.00      1 F:xyz           1
                        (     109.271 eV)
    23      23       --         4.016 au  C             1.00      1 F:z2x           1
                        (     109.271 eV)
    24      24       --         4.016 au  C             1.00      1 F:z2y           1
                        (     109.271 eV)
    25      25       --         4.016 au  C             1.00      1 F:x             1
                        (     109.271 eV)
    26      26       --         4.016 au  C             1.00      1 F:y             1
                        (     109.271 eV)
    27      27      2.000     -10.066 au  C             1.00      1 S               2
                        (    -273.921 eV)
    28      28      2.000      -0.501 au  C             1.00      2 S               2
                        (     -13.620 eV)
    29      29       --         0.373 au  C             1.00      3 S               2
                        (      10.158 eV)
    30      30       --         5.405 au  C             1.00      4 S               2
                        (     147.073 eV)
    31      31       --        49.848 au  C             1.00      5 S               2
                        (    1356.422 eV)
    32      32      0.667      -0.193 au  C             1.00      1 P:x             2
                        (      -5.239 eV)
    33      33       --         0.169 au  C             1.00      2 P:x             2
                        (       4.589 eV)
    34      34       --         2.013 au  C             1.00      3 P:x             2
                        (      54.789 eV)
    35      35      0.667      -0.193 au  C             1.00      1 P:y             2
                        (      -5.239 eV)
    36      36       --         0.169 au  C             1.00      2 P:y             2
                        (       4.589 eV)
    37      37       --         2.013 au  C             1.00      3 P:y             2
                        (      54.789 eV)
    38      38      0.667      -0.193 au  C             1.00      1 P:z             2
                        (      -5.239 eV)
    39      39       --         0.169 au  C             1.00      2 P:z             2
                        (       4.589 eV)
    40      40       --         2.013 au  C             1.00      3 P:z             2
                        (      54.789 eV)
    41      41       --         1.243 au  C             1.00      1 D:z2            2
                        (      33.824 eV)
    42      42       --         1.243 au  C             1.00      1 D:x2-y2         2
                        (      33.824 eV)
    43      43       --         1.243 au  C             1.00      1 D:xy            2
                        (      33.824 eV)
    44      44       --         1.243 au  C             1.00      1 D:xz            2
                        (      33.824 eV)
    45      45       --         1.243 au  C             1.00      1 D:yz            2
                        (      33.824 eV)
    46      46       --         4.016 au  C             1.00      1 F:z3            2
                        (     109.271 eV)
    47      47       --         4.016 au  C             1.00      1 F:z             2
                        (     109.271 eV)
    48      48       --         4.016 au  C             1.00      1 F:xyz           2
                        (     109.271 eV)
    49      49       --         4.016 au  C             1.00      1 F:z2x           2
                        (     109.271 eV)
    50      50       --         4.016 au  C             1.00      1 F:z2y           2
                        (     109.271 eV)
    51      51       --         4.016 au  C             1.00      1 F:x             2
                        (     109.271 eV)
    52      52       --         4.016 au  C             1.00      1 F:y             2
                        (     109.271 eV)
    53      53      2.000     -10.066 au  C             1.00      1 S               3
                        (    -273.921 eV)
    54      54      2.000      -0.501 au  C             1.00      2 S               3
                        (     -13.620 eV)
    55      55       --         0.373 au  C             1.00      3 S               3
                        (      10.158 eV)
    56      56       --         5.405 au  C             1.00      4 S               3
                        (     147.073 eV)
    57      57       --        49.848 au  C             1.00      5 S               3
                        (    1356.422 eV)
    58      58      0.667      -0.193 au  C             1.00      1 P:x             3
                        (      -5.239 eV)
    59      59       --         0.169 au  C             1.00      2 P:x             3
                        (       4.589 eV)
    60      60       --         2.013 au  C             1.00      3 P:x             3
                        (      54.789 eV)
    61      61      0.667      -0.193 au  C             1.00      1 P:y             3
                        (      -5.239 eV)
    62      62       --         0.169 au  C             1.00      2 P:y             3
                        (       4.589 eV)
    63      63       --         2.013 au  C             1.00      3 P:y             3
                        (      54.789 eV)
    64      64      0.667      -0.193 au  C             1.00      1 P:z             3
                        (      -5.239 eV)
    65      65       --         0.169 au  C             1.00      2 P:z             3
                        (       4.589 eV)
    66      66       --         2.013 au  C             1.00      3 P:z             3
                        (      54.789 eV)
    67      67       --         1.243 au  C             1.00      1 D:z2            3
                        (      33.824 eV)
    68      68       --         1.243 au  C             1.00      1 D:x2-y2         3
                        (      33.824 eV)
    69      69       --         1.243 au  C             1.00      1 D:xy            3
                        (      33.824 eV)
    70      70       --         1.243 au  C             1.00      1 D:xz            3
                        (      33.824 eV)
    71      71       --         1.243 au  C             1.00      1 D:yz            3
                        (      33.824 eV)
    72      72       --         4.016 au  C             1.00      1 F:z3            3
                        (     109.271 eV)
    73      73       --         4.016 au  C             1.00      1 F:z             3
                        (     109.271 eV)
    74      74       --         4.016 au  C             1.00      1 F:xyz           3
                        (     109.271 eV)
    75      75       --         4.016 au  C             1.00      1 F:z2x           3
                        (     109.271 eV)
    76      76       --         4.016 au  C             1.00      1 F:z2y           3
                        (     109.271 eV)
    77      77       --         4.016 au  C             1.00      1 F:x             3
                        (     109.271 eV)
    78      78       --         4.016 au  C             1.00      1 F:y             3
                        (     109.271 eV)
    79      79      2.000     -10.066 au  C             1.00      1 S               4
                        (    -273.921 eV)
    80      80      2.000      -0.501 au  C             1.00      2 S               4
                        (     -13.620 eV)
    81      81       --         0.373 au  C             1.00      3 S               4
                        (      10.158 eV)
    82      82       --         5.405 au  C             1.00      4 S               4
                        (     147.073 eV)
    83      83       --        49.848 au  C             1.00      5 S               4
                        (    1356.422 eV)
    84      84      0.667      -0.193 au  C             1.00      1 P:x             4
                        (      -5.239 eV)
    85      85       --         0.169 au  C             1.00      2 P:x             4
                        (       4.589 eV)
    86      86       --         2.013 au  C             1.00      3 P:x             4
                        (      54.789 eV)
    87      87      0.667      -0.193 au  C             1.00      1 P:y             4
                        (      -5.239 eV)
    88      88       --         0.169 au  C             1.00      2 P:y             4
                        (       4.589 eV)
    89      89       --         2.013 au  C             1.00      3 P:y             4
                        (      54.789 eV)
    90      90      0.667      -0.193 au  C             1.00      1 P:z             4
                        (      -5.239 eV)
    91      91       --         0.169 au  C             1.00      2 P:z             4
                        (       4.589 eV)
    92      92       --         2.013 au  C             1.00      3 P:z             4
                        (      54.789 eV)
    93      93       --         1.243 au  C             1.00      1 D:z2            4
                        (      33.824 eV)
    94      94       --         1.243 au  C             1.00      1 D:x2-y2         4
                        (      33.824 eV)
    95      95       --         1.243 au  C             1.00      1 D:xy            4
                        (      33.824 eV)
    96      96       --         1.243 au  C             1.00      1 D:xz            4
                        (      33.824 eV)
    97      97       --         1.243 au  C             1.00      1 D:yz            4
                        (      33.824 eV)
    98      98       --         4.016 au  C             1.00      1 F:z3            4
                        (     109.271 eV)
    99      99       --         4.016 au  C             1.00      1 F:z             4
                        (     109.271 eV)
   100     100       --         4.016 au  C             1.00      1 F:xyz           4
                        (     109.271 eV)
   101     101       --         4.016 au  C             1.00      1 F:z2x           4
                        (     109.271 eV)
   102     102       --         4.016 au  C             1.00      1 F:z2y           4
                        (     109.271 eV)
   103     103       --         4.016 au  C             1.00      1 F:x             4
                        (     109.271 eV)
   104     104       --         4.016 au  C             1.00      1 F:y             4
                        (     109.271 eV)
   105     105      2.000     -10.066 au  C             1.00      1 S               5
                        (    -273.921 eV)
   106     106      2.000      -0.501 au  C             1.00      2 S               5
                        (     -13.620 eV)
   107     107       --         0.373 au  C             1.00      3 S               5
                        (      10.158 eV)
   108     108       --         5.405 au  C             1.00      4 S               5
                        (     147.073 eV)
   109     109       --        49.848 au  C             1.00      5 S               5
                        (    1356.422 eV)
   110     110      0.667      -0.193 au  C             1.00      1 P:x             5
                        (      -5.239 eV)
   111     111       --         0.169 au  C             1.00      2 P:x             5
                        (       4.589 eV)
   112     112       --         2.013 au  C             1.00      3 P:x             5
                        (      54.789 eV)
   113     113      0.667      -0.193 au  C             1.00      1 P:y             5
                        (      -5.239 eV)
   114     114       --         0.169 au  C             1.00      2 P:y             5
                        (       4.589 eV)
   115     115       --         2.013 au  C             1.00      3 P:y             5
                        (      54.789 eV)
   116     116      0.667      -0.193 au  C             1.00      1 P:z             5
                        (      -5.239 eV)
   117     117       --         0.169 au  C             1.00      2 P:z             5
                        (       4.589 eV)
   118     118       --         2.013 au  C             1.00      3 P:z             5
                        (      54.789 eV)
   119     119       --         1.243 au  C             1.00      1 D:z2            5
                        (      33.824 eV)
   120     120       --         1.243 au  C             1.00      1 D:x2-y2         5
                        (      33.824 eV)
   121     121       --         1.243 au  C             1.00      1 D:xy            5
                        (      33.824 eV)
   122     122       --         1.243 au  C             1.00      1 D:xz            5
                        (      33.824 eV)
   123     123       --         1.243 au  C             1.00      1 D:yz            5
                        (      33.824 eV)
   124     124       --         4.016 au  C             1.00      1 F:z3            5
                        (     109.271 eV)
   125     125       --         4.016 au  C             1.00      1 F:z             5
                        (     109.271 eV)
   126     126       --         4.016 au  C             1.00      1 F:xyz           5
                        (     109.271 eV)
   127     127       --         4.016 au  C             1.00      1 F:z2x           5
                        (     109.271 eV)
   128     128       --         4.016 au  C             1.00      1 F:z2y           5
                        (     109.271 eV)
   129     129       --         4.016 au  C             1.00      1 F:x             5
                        (     109.271 eV)
   130     130       --         4.016 au  C             1.00      1 F:y             5
                        (     109.271 eV)
   131     131      2.000     -10.066 au  C             1.00      1 S               6
                        (    -273.921 eV)
   132     132      2.000      -0.501 au  C             1.00      2 S               6
                        (     -13.620 eV)
   133     133       --         0.373 au  C             1.00      3 S               6
                        (      10.158 eV)
   134     134       --         5.405 au  C             1.00      4 S               6
                        (     147.073 eV)
   135     135       --        49.848 au  C             1.00      5 S               6
                        (    1356.422 eV)
   136     136      0.667      -0.193 au  C             1.00      1 P:x             6
                        (      -5.239 eV)
   137     137       --         0.169 au  C             1.00      2 P:x             6
                        (       4.589 eV)
   138     138       --         2.013 au  C             1.00      3 P:x             6
                        (      54.789 eV)
   139     139      0.667      -0.193 au  C             1.00      1 P:y             6
                        (      -5.239 eV)
   140     140       --         0.169 au  C             1.00      2 P:y             6
                        (       4.589 eV)
   141     141       --         2.013 au  C             1.00      3 P:y             6
                        (      54.789 eV)
   142     142      0.667      -0.193 au  C             1.00      1 P:z             6
                        (      -5.239 eV)
   143     143       --         0.169 au  C             1.00      2 P:z             6
                        (       4.589 eV)
   144     144       --         2.013 au  C             1.00      3 P:z             6
                        (      54.789 eV)
   145     145       --         1.243 au  C             1.00      1 D:z2            6
                        (      33.824 eV)
   146     146       --         1.243 au  C             1.00      1 D:x2-y2         6
                        (      33.824 eV)
   147     147       --         1.243 au  C             1.00      1 D:xy            6
                        (      33.824 eV)
   148     148       --         1.243 au  C             1.00      1 D:xz            6
                        (      33.824 eV)
   149     149       --         1.243 au  C             1.00      1 D:yz            6
                        (      33.824 eV)
   150     150       --         4.016 au  C             1.00      1 F:z3            6
                        (     109.271 eV)
   151     151       --         4.016 au  C             1.00      1 F:z             6
                        (     109.271 eV)
   152     152       --         4.016 au  C             1.00      1 F:xyz           6
                        (     109.271 eV)
   153     153       --         4.016 au  C             1.00      1 F:z2x           6
                        (     109.271 eV)
   154     154       --         4.016 au  C             1.00      1 F:z2y           6
                        (     109.271 eV)
   155     155       --         4.016 au  C             1.00      1 F:x             6
                        (     109.271 eV)
   156     156       --         4.016 au  C             1.00      1 F:y             6
                        (     109.271 eV)
   157     157      2.000     -10.066 au  C             1.00      1 S               7
                        (    -273.921 eV)
   158     158      2.000      -0.501 au  C             1.00      2 S               7
                        (     -13.620 eV)
   159     159       --         0.373 au  C             1.00      3 S               7
                        (      10.158 eV)
   160     160       --         5.405 au  C             1.00      4 S               7
                        (     147.073 eV)
   161     161       --        49.848 au  C             1.00      5 S               7
                        (    1356.422 eV)
   162     162      0.667      -0.193 au  C             1.00      1 P:x             7
                        (      -5.239 eV)
   163     163       --         0.169 au  C             1.00      2 P:x             7
                        (       4.589 eV)
   164     164       --         2.013 au  C             1.00      3 P:x             7
                        (      54.789 eV)
   165     165      0.667      -0.193 au  C             1.00      1 P:y             7
                        (      -5.239 eV)
   166     166       --         0.169 au  C             1.00      2 P:y             7
                        (       4.589 eV)
   167     167       --         2.013 au  C             1.00      3 P:y             7
                        (      54.789 eV)
   168     168      0.667      -0.193 au  C             1.00      1 P:z             7
                        (      -5.239 eV)
   169     169       --         0.169 au  C             1.00      2 P:z             7
                        (       4.589 eV)
   170     170       --         2.013 au  C             1.00      3 P:z             7
                        (      54.789 eV)
   171     171       --         1.243 au  C             1.00      1 D:z2            7
                        (      33.824 eV)
   172     172       --         1.243 au  C             1.00      1 D:x2-y2         7
                        (      33.824 eV)
   173     173       --         1.243 au  C             1.00      1 D:xy            7
                        (      33.824 eV)
   174     174       --         1.243 au  C             1.00      1 D:xz            7
                        (      33.824 eV)
   175     175       --         1.243 au  C             1.00      1 D:yz            7
                        (      33.824 eV)
   176     176       --         4.016 au  C             1.00      1 F:z3            7
                        (     109.271 eV)
   177     177       --         4.016 au  C             1.00      1 F:z             7
                        (     109.271 eV)
   178     178       --         4.016 au  C             1.00      1 F:xyz           7
                        (     109.271 eV)
   179     179       --         4.016 au  C             1.00      1 F:z2x           7
                        (     109.271 eV)
   180     180       --         4.016 au  C             1.00      1 F:z2y           7
                        (     109.271 eV)
   181     181       --         4.016 au  C             1.00      1 F:x             7
                        (     109.271 eV)
   182     182       --         4.016 au  C             1.00      1 F:y             7
                        (     109.271 eV)
   183     183      2.000     -10.066 au  C             1.00      1 S               8
                        (    -273.921 eV)
   184     184      2.000      -0.501 au  C             1.00      2 S               8
                        (     -13.620 eV)
   185     185       --         0.373 au  C             1.00      3 S               8
                        (      10.158 eV)
   186     186       --         5.405 au  C             1.00      4 S               8
                        (     147.073 eV)
   187     187       --        49.848 au  C             1.00      5 S               8
                        (    1356.422 eV)
   188     188      0.667      -0.193 au  C             1.00      1 P:x             8
                        (      -5.239 eV)
   189     189       --         0.169 au  C             1.00      2 P:x             8
                        (       4.589 eV)
   190     190       --         2.013 au  C             1.00      3 P:x             8
                        (      54.789 eV)
   191     191      0.667      -0.193 au  C             1.00      1 P:y             8
                        (      -5.239 eV)
   192     192       --         0.169 au  C             1.00      2 P:y             8
                        (       4.589 eV)
   193     193       --         2.013 au  C             1.00      3 P:y             8
                        (      54.789 eV)
   194     194      0.667      -0.193 au  C             1.00      1 P:z             8
                        (      -5.239 eV)
   195     195       --         0.169 au  C             1.00      2 P:z             8
                        (       4.589 eV)
   196     196       --         2.013 au  C             1.00      3 P:z             8
                        (      54.789 eV)
   197     197       --         1.243 au  C             1.00      1 D:z2            8
                        (      33.824 eV)
   198     198       --         1.243 au  C             1.00      1 D:x2-y2         8
                        (      33.824 eV)
   199     199       --         1.243 au  C             1.00      1 D:xy            8
                        (      33.824 eV)
   200     200       --         1.243 au  C             1.00      1 D:xz            8
                        (      33.824 eV)
   201     201       --         1.243 au  C             1.00      1 D:yz            8
                        (      33.824 eV)
   202     202       --         4.016 au  C             1.00      1 F:z3            8
                        (     109.271 eV)
   203     203       --         4.016 au  C             1.00      1 F:z             8
                        (     109.271 eV)
   204     204       --         4.016 au  C             1.00      1 F:xyz           8
                        (     109.271 eV)
   205     205       --         4.016 au  C             1.00      1 F:z2x           8
                        (     109.271 eV)
   206     206       --         4.016 au  C             1.00      1 F:z2y           8
                        (     109.271 eV)
   207     207       --         4.016 au  C             1.00      1 F:x             8
                        (     109.271 eV)
   208     208       --         4.016 au  C             1.00      1 F:y             8
                        (     109.271 eV)
   209     209      2.000     -10.066 au  C             1.00      1 S               9
                        (    -273.921 eV)
   210     210      2.000      -0.501 au  C             1.00      2 S               9
                        (     -13.620 eV)
   211     211       --         0.373 au  C             1.00      3 S               9
                        (      10.158 eV)
   212     212       --         5.405 au  C             1.00      4 S               9
                        (     147.073 eV)
   213     213       --        49.848 au  C             1.00      5 S               9
                        (    1356.422 eV)
   214     214      0.667      -0.193 au  C             1.00      1 P:x             9
                        (      -5.239 eV)
   215     215       --         0.169 au  C             1.00      2 P:x             9
                        (       4.589 eV)
   216     216       --         2.013 au  C             1.00      3 P:x             9
                        (      54.789 eV)
   217     217      0.667      -0.193 au  C             1.00      1 P:y             9
                        (      -5.239 eV)
   218     218       --         0.169 au  C             1.00      2 P:y             9
                        (       4.589 eV)
   219     219       --         2.013 au  C             1.00      3 P:y             9
                        (      54.789 eV)
   220     220      0.667      -0.193 au  C             1.00      1 P:z             9
                        (      -5.239 eV)
   221     221       --         0.169 au  C             1.00      2 P:z             9
                        (       4.589 eV)
   222     222       --         2.013 au  C             1.00      3 P:z             9
                        (      54.789 eV)
   223     223       --         1.243 au  C             1.00      1 D:z2            9
                        (      33.824 eV)
   224     224       --         1.243 au  C             1.00      1 D:x2-y2         9
                        (      33.824 eV)
   225     225       --         1.243 au  C             1.00      1 D:xy            9
                        (      33.824 eV)
   226     226       --         1.243 au  C             1.00      1 D:xz            9
                        (      33.824 eV)
   227     227       --         1.243 au  C             1.00      1 D:yz            9
                        (      33.824 eV)
   228     228       --         4.016 au  C             1.00      1 F:z3            9
                        (     109.271 eV)
   229     229       --         4.016 au  C             1.00      1 F:z             9
                        (     109.271 eV)
   230     230       --         4.016 au  C             1.00      1 F:xyz           9
                        (     109.271 eV)
   231     231       --         4.016 au  C             1.00      1 F:z2x           9
                        (     109.271 eV)
   232     232       --         4.016 au  C             1.00      1 F:z2y           9
                        (     109.271 eV)
   233     233       --         4.016 au  C             1.00      1 F:x             9
                        (     109.271 eV)
   234     234       --         4.016 au  C             1.00      1 F:y             9
                        (     109.271 eV)
   235     235      1.000      -0.240 au  H             1.00      1 S              10
                        (      -6.532 eV)
   236     236       --         0.088 au  H             1.00      2 S              10
                        (       2.394 eV)
   237     237       --         1.502 au  H             1.00      3 S              10
                        (      40.869 eV)
   238     238       --         0.406 au  H             1.00      1 P:x            10
                        (      11.051 eV)
   239     239       --         0.406 au  H             1.00      1 P:y            10
                        (      11.051 eV)
   240     240       --         0.406 au  H             1.00      1 P:z            10
                        (      11.051 eV)
   241     241       --         2.569 au  H             1.00      1 D:z2           10
                        (      69.917 eV)
   242     242       --         2.569 au  H             1.00      1 D:x2-y2        10
                        (      69.917 eV)
   243     243       --         2.569 au  H             1.00      1 D:xy           10
                        (      69.917 eV)
   244     244       --         2.569 au  H             1.00      1 D:xz           10
                        (      69.917 eV)
   245     245       --         2.569 au  H             1.00      1 D:yz           10
                        (      69.917 eV)
   246     246      1.000      -0.240 au  H             1.00      1 S              11
                        (      -6.532 eV)
   247     247       --         0.088 au  H             1.00      2 S              11
                        (       2.394 eV)
   248     248       --         1.502 au  H             1.00      3 S              11
                        (      40.869 eV)
   249     249       --         0.406 au  H             1.00      1 P:x            11
                        (      11.051 eV)
   250     250       --         0.406 au  H             1.00      1 P:y            11
                        (      11.051 eV)
   251     251       --         0.406 au  H             1.00      1 P:z            11
                        (      11.051 eV)
   252     252       --         2.569 au  H             1.00      1 D:z2           11
                        (      69.917 eV)
   253     253       --         2.569 au  H             1.00      1 D:x2-y2        11
                        (      69.917 eV)
   254     254       --         2.569 au  H             1.00      1 D:xy           11
                        (      69.917 eV)
   255     255       --         2.569 au  H             1.00      1 D:xz           11
                        (      69.917 eV)
   256     256       --         2.569 au  H             1.00      1 D:yz           11
                        (      69.917 eV)
   257     257      1.000      -0.240 au  H             1.00      1 S              12
                        (      -6.532 eV)
   258     258       --         0.088 au  H             1.00      2 S              12
                        (       2.394 eV)
   259     259       --         1.502 au  H             1.00      3 S              12
                        (      40.869 eV)
   260     260       --         0.406 au  H             1.00      1 P:x            12
                        (      11.051 eV)
   261     261       --         0.406 au  H             1.00      1 P:y            12
                        (      11.051 eV)
   262     262       --         0.406 au  H             1.00      1 P:z            12
                        (      11.051 eV)
   263     263       --         2.569 au  H             1.00      1 D:z2           12
                        (      69.917 eV)
   264     264       --         2.569 au  H             1.00      1 D:x2-y2        12
                        (      69.917 eV)
   265     265       --         2.569 au  H             1.00      1 D:xy           12
                        (      69.917 eV)
   266     266       --         2.569 au  H             1.00      1 D:xz           12
                        (      69.917 eV)
   267     267       --         2.569 au  H             1.00      1 D:yz           12
                        (      69.917 eV)
   268     268      1.000      -0.240 au  H             1.00      1 S              13
                        (      -6.532 eV)
   269     269       --         0.088 au  H             1.00      2 S              13
                        (       2.394 eV)
   270     270       --         1.502 au  H             1.00      3 S              13
                        (      40.869 eV)
   271     271       --         0.406 au  H             1.00      1 P:x            13
                        (      11.051 eV)
   272     272       --         0.406 au  H             1.00      1 P:y            13
                        (      11.051 eV)
   273     273       --         0.406 au  H             1.00      1 P:z            13
                        (      11.051 eV)
   274     274       --         2.569 au  H             1.00      1 D:z2           13
                        (      69.917 eV)
   275     275       --         2.569 au  H             1.00      1 D:x2-y2        13
                        (      69.917 eV)
   276     276       --         2.569 au  H             1.00      1 D:xy           13
                        (      69.917 eV)
   277     277       --         2.569 au  H             1.00      1 D:xz           13
                        (      69.917 eV)
   278     278       --         2.569 au  H             1.00      1 D:yz           13
                        (      69.917 eV)
   279     279      1.000      -0.240 au  H             1.00      1 S              14
                        (      -6.532 eV)
   280     280       --         0.088 au  H             1.00      2 S              14
                        (       2.394 eV)
   281     281       --         1.502 au  H             1.00      3 S              14
                        (      40.869 eV)
   282     282       --         0.406 au  H             1.00      1 P:x            14
                        (      11.051 eV)
   283     283       --         0.406 au  H             1.00      1 P:y            14
                        (      11.051 eV)
   284     284       --         0.406 au  H             1.00      1 P:z            14
                        (      11.051 eV)
   285     285       --         2.569 au  H             1.00      1 D:z2           14
                        (      69.917 eV)
   286     286       --         2.569 au  H             1.00      1 D:x2-y2        14
                        (      69.917 eV)
   287     287       --         2.569 au  H             1.00      1 D:xy           14
                        (      69.917 eV)
   288     288       --         2.569 au  H             1.00      1 D:xz           14
                        (      69.917 eV)
   289     289       --         2.569 au  H             1.00      1 D:yz           14
                        (      69.917 eV)
   290     290      1.000      -0.240 au  H             1.00      1 S              15
                        (      -6.532 eV)
   291     291       --         0.088 au  H             1.00      2 S              15
                        (       2.394 eV)
   292     292       --         1.502 au  H             1.00      3 S              15
                        (      40.869 eV)
   293     293       --         0.406 au  H             1.00      1 P:x            15
                        (      11.051 eV)
   294     294       --         0.406 au  H             1.00      1 P:y            15
                        (      11.051 eV)
   295     295       --         0.406 au  H             1.00      1 P:z            15
                        (      11.051 eV)
   296     296       --         2.569 au  H             1.00      1 D:z2           15
                        (      69.917 eV)
   297     297       --         2.569 au  H             1.00      1 D:x2-y2        15
                        (      69.917 eV)
   298     298       --         2.569 au  H             1.00      1 D:xy           15
                        (      69.917 eV)
   299     299       --         2.569 au  H             1.00      1 D:xz           15
                        (      69.917 eV)
   300     300       --         2.569 au  H             1.00      1 D:yz           15
                        (      69.917 eV)
   301     301      1.000      -0.240 au  H             1.00      1 S              16
                        (      -6.532 eV)
   302     302       --         0.088 au  H             1.00      2 S              16
                        (       2.394 eV)
   303     303       --         1.502 au  H             1.00      3 S              16
                        (      40.869 eV)
   304     304       --         0.406 au  H             1.00      1 P:x            16
                        (      11.051 eV)
   305     305       --         0.406 au  H             1.00      1 P:y            16
                        (      11.051 eV)
   306     306       --         0.406 au  H             1.00      1 P:z            16
                        (      11.051 eV)
   307     307       --         2.569 au  H             1.00      1 D:z2           16
                        (      69.917 eV)
   308     308       --         2.569 au  H             1.00      1 D:x2-y2        16
                        (      69.917 eV)
   309     309       --         2.569 au  H             1.00      1 D:xy           16
                        (      69.917 eV)
   310     310       --         2.569 au  H             1.00      1 D:xz           16
                        (      69.917 eV)
   311     311       --         2.569 au  H             1.00      1 D:yz           16
                        (      69.917 eV)
   312     312      1.000      -0.240 au  H             1.00      1 S              17
                        (      -6.532 eV)
   313     313       --         0.088 au  H             1.00      2 S              17
                        (       2.394 eV)
   314     314       --         1.502 au  H             1.00      3 S              17
                        (      40.869 eV)
   315     315       --         0.406 au  H             1.00      1 P:x            17
                        (      11.051 eV)
   316     316       --         0.406 au  H             1.00      1 P:y            17
                        (      11.051 eV)
   317     317       --         0.406 au  H             1.00      1 P:z            17
                        (      11.051 eV)
   318     318       --         2.569 au  H             1.00      1 D:z2           17
                        (      69.917 eV)
   319     319       --         2.569 au  H             1.00      1 D:x2-y2        17
                        (      69.917 eV)
   320     320       --         2.569 au  H             1.00      1 D:xy           17
                        (      69.917 eV)
   321     321       --         2.569 au  H             1.00      1 D:xz           17
                        (      69.917 eV)
   322     322       --         2.569 au  H             1.00      1 D:yz           17
                        (      69.917 eV)
   323     323      1.000      -0.240 au  H             1.00      1 S              18
                        (      -6.532 eV)
   324     324       --         0.088 au  H             1.00      2 S              18
                        (       2.394 eV)
   325     325       --         1.502 au  H             1.00      3 S              18
                        (      40.869 eV)
   326     326       --         0.406 au  H             1.00      1 P:x            18
                        (      11.051 eV)
   327     327       --         0.406 au  H             1.00      1 P:y            18
                        (      11.051 eV)
   328     328       --         0.406 au  H             1.00      1 P:z            18
                        (      11.051 eV)
   329     329       --         2.569 au  H             1.00      1 D:z2           18
                        (      69.917 eV)
   330     330       --         2.569 au  H             1.00      1 D:x2-y2        18
                        (      69.917 eV)
   331     331       --         2.569 au  H             1.00      1 D:xy           18
                        (      69.917 eV)
   332     332       --         2.569 au  H             1.00      1 D:xz           18
                        (      69.917 eV)
   333     333       --         2.569 au  H             1.00      1 D:yz           18
                        (      69.917 eV)
   334     334      1.000      -0.240 au  H             1.00      1 S              19
                        (      -6.532 eV)
   335     335       --         0.088 au  H             1.00      2 S              19
                        (       2.394 eV)
   336     336       --         1.502 au  H             1.00      3 S              19
                        (      40.869 eV)
   337     337       --         0.406 au  H             1.00      1 P:x            19
                        (      11.051 eV)
   338     338       --         0.406 au  H             1.00      1 P:y            19
                        (      11.051 eV)
   339     339       --         0.406 au  H             1.00      1 P:z            19
                        (      11.051 eV)
   340     340       --         2.569 au  H             1.00      1 D:z2           19
                        (      69.917 eV)
   341     341       --         2.569 au  H             1.00      1 D:x2-y2        19
                        (      69.917 eV)
   342     342       --         2.569 au  H             1.00      1 D:xy           19
                        (      69.917 eV)
   343     343       --         2.569 au  H             1.00      1 D:xz           19
                        (      69.917 eV)
   344     344       --         2.569 au  H             1.00      1 D:yz           19
                        (      69.917 eV)
   345     345      1.000      -0.240 au  H             1.00      1 S              20
                        (      -6.532 eV)
   346     346       --         0.088 au  H             1.00      2 S              20
                        (       2.394 eV)
   347     347       --         1.502 au  H             1.00      3 S              20
                        (      40.869 eV)
   348     348       --         0.406 au  H             1.00      1 P:x            20
                        (      11.051 eV)
   349     349       --         0.406 au  H             1.00      1 P:y            20
                        (      11.051 eV)
   350     350       --         0.406 au  H             1.00      1 P:z            20
                        (      11.051 eV)
   351     351       --         2.569 au  H             1.00      1 D:z2           20
                        (      69.917 eV)
   352     352       --         2.569 au  H             1.00      1 D:x2-y2        20
                        (      69.917 eV)
   353     353       --         2.569 au  H             1.00      1 D:xy           20
                        (      69.917 eV)
   354     354       --         2.569 au  H             1.00      1 D:xz           20
                        (      69.917 eV)
   355     355       --         2.569 au  H             1.00      1 D:yz           20
                        (      69.917 eV)
   356     356      1.000      -0.240 au  H             1.00      1 S              21
                        (      -6.532 eV)
   357     357       --         0.088 au  H             1.00      2 S              21
                        (       2.394 eV)
   358     358       --         1.502 au  H             1.00      3 S              21
                        (      40.869 eV)
   359     359       --         0.406 au  H             1.00      1 P:x            21
                        (      11.051 eV)
   360     360       --         0.406 au  H             1.00      1 P:y            21
                        (      11.051 eV)
   361     361       --         0.406 au  H             1.00      1 P:z            21
                        (      11.051 eV)
   362     362       --         2.569 au  H             1.00      1 D:z2           21
                        (      69.917 eV)
   363     363       --         2.569 au  H             1.00      1 D:x2-y2        21
                        (      69.917 eV)
   364     364       --         2.569 au  H             1.00      1 D:xy           21
                        (      69.917 eV)
   365     365       --         2.569 au  H             1.00      1 D:xz           21
                        (      69.917 eV)
   366     366       --         2.569 au  H             1.00      1 D:yz           21
                        (      69.917 eV)
   367     367      1.000      -0.240 au  H             1.00      1 S              22
                        (      -6.532 eV)
   368     368       --         0.088 au  H             1.00      2 S              22
                        (       2.394 eV)
   369     369       --         1.502 au  H             1.00      3 S              22
                        (      40.869 eV)
   370     370       --         0.406 au  H             1.00      1 P:x            22
                        (      11.051 eV)
   371     371       --         0.406 au  H             1.00      1 P:y            22
                        (      11.051 eV)
   372     372       --         0.406 au  H             1.00      1 P:z            22
                        (      11.051 eV)
   373     373       --         2.569 au  H             1.00      1 D:z2           22
                        (      69.917 eV)
   374     374       --         2.569 au  H             1.00      1 D:x2-y2        22
                        (      69.917 eV)
   375     375       --         2.569 au  H             1.00      1 D:xy           22
                        (      69.917 eV)
   376     376       --         2.569 au  H             1.00      1 D:xz           22
                        (      69.917 eV)
   377     377       --         2.569 au  H             1.00      1 D:yz           22
                        (      69.917 eV)
   378     378      1.000      -0.240 au  H             1.00      1 S              23
                        (      -6.532 eV)
   379     379       --         0.088 au  H             1.00      2 S              23
                        (       2.394 eV)
   380     380       --         1.502 au  H             1.00      3 S              23
                        (      40.869 eV)
   381     381       --         0.406 au  H             1.00      1 P:x            23
                        (      11.051 eV)
   382     382       --         0.406 au  H             1.00      1 P:y            23
                        (      11.051 eV)
   383     383       --         0.406 au  H             1.00      1 P:z            23
                        (      11.051 eV)
   384     384       --         2.569 au  H             1.00      1 D:z2           23
                        (      69.917 eV)
   385     385       --         2.569 au  H             1.00      1 D:x2-y2        23
                        (      69.917 eV)
   386     386       --         2.569 au  H             1.00      1 D:xy           23
                        (      69.917 eV)
   387     387       --         2.569 au  H             1.00      1 D:xz           23
                        (      69.917 eV)
   388     388       --         2.569 au  H             1.00      1 D:yz           23
                        (      69.917 eV)



 ================================
 (Slater-type)  F U N C T I O N S  ***  (Basis and Fit)  ***
 ================================
  

 Atom Type    1  (C)
 ==============

 Valence Basis Sets:  10
 -----------------------
   1 S    7.680000
   1 S    5.000000
   2 S    1.280000
   2 S    2.100000
   2 S    4.600000
   2 P    0.820000
   2 P    1.480000
   2 P    2.940000
   3 D    2.200000
   4 F    3.300000

 Atom Type    2  (H)
 ==============

 Valence Basis Sets:   5
 -----------------------
   1 S    0.690000
   1 S    0.920000
   1 S    1.580000
   2 P    1.250000
   3 D    2.500000


 BAS: List of all Elementary Cartesian Basis Functions
 =====================================================

 The numbering in the list below (to the right of the function characteristics) is referred
 to in print-outs of MO eigenvectors and Mulliken populations in the BAS representation
 (as contrasted to the SFO representation).

 Notes:
 1. The functions are characterized by a polynomial prefactor (powers of x,y,z and r) and
    an exponential decay factor alpha.
 2. Since the basis sets are specific for an atom TYPE, the individual functions occur on
    all atoms of that type.
 3. The word 'Core' in the left margin signals that it is a Core Function (CF) : not a
    degree of freedom in the valence set, but only used to ensure orthogonalization of
    the other valence basis functions on the frozen Core Orbitals.


 (power of) X  Y  Z  R     Alpha  on Atom
            ==========     =====     ==========

 C                                    1    2    3    4    5    6    7    8    9
                                  ---------------------------------------------------------------------------
            0  0  0  0     7.680      1   31   61   91  121  151  181  211  241
            0  0  0  0     5.000      2   32   62   92  122  152  182  212  242
            0  0  0  1     1.280      3   33   63   93  123  153  183  213  243
            0  0  0  1     2.100      4   34   64   94  124  154  184  214  244
            0  0  0  1     4.600      5   35   65   95  125  155  185  215  245
            1  0  0  0     0.820      6   36   66   96  126  156  186  216  246
            0  1  0  0     0.820      7   37   67   97  127  157  187  217  247
            0  0  1  0     0.820      8   38   68   98  128  158  188  218  248
            1  0  0  0     1.480      9   39   69   99  129  159  189  219  249
            0  1  0  0     1.480     10   40   70  100  130  160  190  220  250
            0  0  1  0     1.480     11   41   71  101  131  161  191  221  251
            1  0  0  0     2.940     12   42   72  102  132  162  192  222  252
            0  1  0  0     2.940     13   43   73  103  133  163  193  223  253
            0  0  1  0     2.940     14   44   74  104  134  164  194  224  254
            2  0  0  0     2.200     15   45   75  105  135  165  195  225  255
            1  1  0  0     2.200     16   46   76  106  136  166  196  226  256
            1  0  1  0     2.200     17   47   77  107  137  167  197  227  257
            0  2  0  0     2.200     18   48   78  108  138  168  198  228  258
            0  1  1  0     2.200     19   49   79  109  139  169  199  229  259
            0  0  2  0     2.200     20   50   80  110  140  170  200  230  260
            3  0  0  0     3.300     21   51   81  111  141  171  201  231  261
            2  1  0  0     3.300     22   52   82  112  142  172  202  232  262
            2  0  1  0     3.300     23   53   83  113  143  173  203  233  263
            1  2  0  0     3.300     24   54   84  114  144  174  204  234  264
            1  1  1  0     3.300     25   55   85  115  145  175  205  235  265
            1  0  2  0     3.300     26   56   86  116  146  176  206  236  266
            0  3  0  0     3.300     27   57   87  117  147  177  207  237  267
            0  2  1  0     3.300     28   58   88  118  148  178  208  238  268
            0  1  2  0     3.300     29   59   89  119  149  179  209  239  269
            0  0  3  0     3.300     30   60   90  120  150  180  210  240  270

 H                                   10   11   12   13   14   15   16   17   18   19   20   21   22   23
                                  ---------------------------------------------------------------------------
            0  0  0  0     0.690    271  283  295  307  319  331  343  355  367  379  391  403  415  427
            0  0  0  0     0.920    272  284  296  308  320  332  344  356  368  380  392  404  416  428
            0  0  0  0     1.580    273  285  297  309  321  333  345  357  369  381  393  405  417  429
            1  0  0  0     1.250    274  286  298  310  322  334  346  358  370  382  394  406  418  430
            0  1  0  0     1.250    275  287  299  311  323  335  347  359  371  383  395  407  419  431
            0  0  1  0     1.250    276  288  300  312  324  336  348  360  372  384  396  408  420  432
            2  0  0  0     2.500    277  289  301  313  325  337  349  361  373  385  397  409  421  433
            1  1  0  0     2.500    278  290  302  314  326  338  350  362  374  386  398  410  422  434
            1  0  1  0     2.500    279  291  303  315  327  339  351  363  375  387  399  411  423  435
            0  2  0  0     2.500    280  292  304  316  328  340  352  364  376  388  400  412  424  436
            0  1  1  0     2.500    281  293  305  317  329  341  353  365  377  389  401  413  425  437
            0  0  2  0     2.500    282  294  306  318  330  342  354  366  378  390  402  414  426  438

 Total number of charge fitting functions (nprimf)      1456
 Total number of Cartesian basis functions (naos)        438
 Total number of Cartesian core functions  (ncos)          0

 ***************************************************************************************************



                                              ***********************
                                              *  T E C H N I C A L  *
                                              ***********************
  



 =============================================================
 P A R A L L E L I Z A T I O N  and  V E C T O R I Z A T I O N
 =============================================================
  
 Nr of parallel processes:                                1
 Maximum vector length in NumInt loops:                 128



 =====================
 S C F   U P D A T E S
 =====================
  
 Max. nr. of cycles:                               200
 Convergence criterion:                              0.0000010000
   secondary criterion:                              0.0010000000

 Mix parameter (when DIIS does not apply):           0.2000000000
 Mixed ADIIS+SDIIS will be used                  
    Max number of expansion vectors:                10
    Pure ADIIS when Max([F,P]) is above              0.1000000000
    Pure SDIIS when Max([F,P]) is below              0.0010000000
 Automatic ElectronSmearing (in case of problematic SCF convergence) disabled



 =================
 P R E C I S I O N  ***  (General: NumInt, NeglectFunctionTails, ...)  ***
 =================
  

 NumInt:           Target precision:                 4.0000000000
 -------           Initial precision:                4.0000000000
                   Min. precision (optimization):    4.0000000000

 Neglect Functions:          Basis functions:        0.1000000000E-05
 ------------------          Fit functions:          0.1000000000E-05



 ===========================
 L I N E A R   S C A L I N G
 ===========================
  

 Cut-off radii density fit:                        0.1000000000E-07
 Overlap cut-off criterion AO matrix elements:     0.1000000000E-05
 Cut-offs for Coulomb potential and fitted density:0.1000000000E-07
 Cut-off criterion for Coulomb multipole terms:    0.1000000000E-07
 Progressive Convergence parameter:                 0.000000000    
 ***************************************************************************************************



                                            ***************************
                                            *  C O M P U T A T I O N  *
                                            ***************************
  

 Number of elements of the density matrix on this node (used, total):     96141     96141



 ===========================================
 Numerical Integration : Fuzzy Cells (Becke)
 ===========================================
  
 Becke grid quality: NORMAL         
  
 Lebedev angular grid order:             min:  11 max:  23
 Nr. of radial points:                   min:  46 max:  52

 Total nr. of points:     146078
 Nr. of blocks:             1142
 Block length:               128
 Nr. of dummy points:         98


 Test of Precision of the Numerical Integration Grid
 ===================================================

 Integral of the Total Core Density:                   0.00000000000000



 ========================
 Density Fitting (zlmFit)
 ========================
  
 ZlmFit Fit Quality: NORMAL         
  
 Max L-expansion:                        min:   6 max:   7
 Nr. of radial interpolation points:     min:  39 max:  48



 =====
 S C F  ***  ScaSCF  ***
 =====
  
 Initial density matrix is calculated as sum of fragments

 CYCLE    1
 SCF Error: norm([F,P])=      7.400680003236, max([F,P])=      1.029746283220
 orbitals (Q,E):
 ---------------
 A :25...44          ( 2.00    -0.5335)  ( 2.00    -0.5269)  ( 2.00    -0.5233)  ( 2.00    -0.5152)
                     ( 2.00    -0.5098)  ( 2.00    -0.5002)  ( 2.00    -0.4843)  ( 2.00    -0.4564)
                     ( 2.00    -0.4069)  ( 2.00    -0.3447)  ( 0.00    -0.2480)  ( 0.00    -0.1754)
                     ( 0.00    -0.1184)  ( 0.00    -0.0697)  ( 0.00    -0.0627)  ( 0.00    -0.0569)
                     ( 0.00    -0.0414)  ( 0.00    -0.0310)  ( 0.00    -0.0266)  ( 0.00    -0.0209)

 CYCLE    2
   MIX coefficients:  0.8000  0.2000
 SCF Error: norm([F,P])=      1.375122114155, max([F,P])=      0.209263953656
 orbitals (Q,E):
 ---------------
 A :25...35          ( 2.00    -0.4624)  ( 2.00    -0.4578)  ( 2.00    -0.4522)  ( 2.00    -0.4458)
                     ( 2.00    -0.4376)  ( 2.00    -0.4265)  ( 2.00    -0.4123)  ( 2.00    -0.3856)
                     ( 2.00    -0.3372)  ( 2.00    -0.2768)  ( 0.00    -0.1822)

 CYCLE    3
  SDIIS (wt  0.000): -1.0732  2.0732
 A-DIIS (wt  1.000):  0.0000  1.0000
  DIIS coefficients:  0.0000  1.0000
 SCF Error: norm([F,P])=      0.758545063333, max([F,P])=      0.103109374248
 orbitals (Q,E):
 ---------------
 A :25...35          ( 2.00    -0.2661)  ( 2.00    -0.2528)  ( 2.00    -0.2468)  ( 2.00    -0.2363)
                     ( 2.00    -0.2124)  ( 2.00    -0.2020)  ( 2.00    -0.1948)  ( 2.00    -0.1907)
                     ( 2.00    -0.1469)  ( 2.00    -0.0850)  ( 0.00    -0.0030)

 CYCLE    4
  SDIIS (wt  0.000): -0.0027  0.5983  0.4043
 A-DIIS (wt  1.000):  0.0000  0.6546  0.3454
  DIIS coefficients:  0.0000  0.6546  0.3454
 SCF Error: norm([F,P])=      1.101649825282, max([F,P])=      0.176821001280
 orbitals (Q,E):
 ---------------
 A :25...35          ( 2.00    -0.3356)  ( 2.00    -0.3222)  ( 2.00    -0.3208)  ( 2.00    -0.3173)
                     ( 2.00    -0.3019)  ( 2.00    -0.2927)  ( 2.00    -0.2831)  ( 2.00    -0.2759)
                     ( 2.00    -0.2264)  ( 2.00    -0.1646)  ( 0.00    -0.0749)

 CYCLE    5
  SDIIS (wt  0.713):  0.0880  0.1112  0.1014  0.6994
 A-DIIS (wt  0.287):  0.0000  0.0000  0.0000  1.0000
  DIIS coefficients:  0.0628  0.0793  0.0723  0.7856
 SCF Error: norm([F,P])=      0.155942725955, max([F,P])=      0.029383834468
 orbitals (Q,E):
 ---------------
 A :25...35          ( 2.00    -0.3489)  ( 2.00    -0.3416)  ( 2.00    -0.3356)  ( 2.00    -0.3330)
[...]
                                    2.89%     2 P:z             4.589  0.00     8 C
                                    2.18%     2 S               2.394  0.00    12 H
                                    1.98%     2 S               2.394  0.00    17 H
                                    1.90%     1 S              -6.532  1.00    14 H
                                    1.87%     2 P:y             4.589  0.00     3 C
                                    1.77%     1 S              -6.532  1.00    10 H
                                    1.73%     1 S              -6.532  1.00    17 H
                                    1.67%     2 P:x             4.589  0.00     9 C
                                   -1.65%     3 S              10.158  0.00     4 C
                                    1.62%     2 P:x             4.589  0.00     6 C
                                    1.62%     1 P:z            -5.239  0.67     2 C
                                    1.49%     2 S               2.394  0.00    23 H
                                   -1.39%     2 S               2.394  0.00    19 H
                                    1.32%     1 P:z            -5.239  0.67     8 C
                                    1.32%     2 P:x             4.589  0.00     1 C
                                   -1.30%     2 S               2.394  0.00    11 H
                                    1.26%     1 S              -6.532  1.00    16 H
                                   -1.22%     2 P:z             4.589  0.00     1 C
                                    1.20%     1 P:y            -5.239  0.67     6 C
                                   -1.16%     2 P:z             4.589  0.00     2 C
                                    1.14%     2 S             -13.620  2.00     2 C
                                    1.14%     1 P:y            -5.239  0.67     7 C
                                    1.06%     2 S               2.394  0.00    21 H
                                    1.04%     1 P:y            -5.239  0.67     1 C
       2.858  0.00    51 A         17.91%     1 S              -6.532  1.00    16 H
                                   16.87%     2 P:z             4.589  0.00     3 C
                                   11.35%     2 P:x             4.589  0.00     9 C
                                    9.77%     1 S              -6.532  1.00    22 H
                                   -9.58%     3 S              10.158  0.00     2 C
                                    9.21%     1 P:z            -5.239  0.67     3 C
                                    6.17%     1 S              -6.532  1.00    13 H
                                    5.47%     1 S              -6.532  1.00    17 H
                                    4.02%     2 S             -13.620  2.00     2 C
                                    3.75%     1 S              -6.532  1.00    20 H
                                    3.34%     1 P:z            -5.239  0.67     1 C
                                    3.27%     2 P:y             4.589  0.00     7 C
                                   -3.09%     2 P:z             4.589  0.00     7 C
                                    3.00%     2 P:z             4.589  0.00     1 C
                                    2.99%     1 P:z            -5.239  0.67     5 C
                                    2.94%     1 S              -6.532  1.00    18 H
                                    2.90%     1 P:x            -5.239  0.67     9 C
                                   -2.90%     2 P:x             4.589  0.00     7 C
                                    2.79%     1 P:z            -5.239  0.67     9 C
                                   -2.71%     3 S              10.158  0.00     7 C
                                    2.64%     1 P:z            -5.239  0.67     8 C
                                    2.53%     2 P:y             4.589  0.00     1 C
                                   -2.46%     2 S               2.394  0.00    16 H
                                    2.45%     1 P:z            -5.239  0.67     2 C
                                   -2.38%     2 P:x             4.589  0.00     4 C
                                   -2.35%     2 P:z             4.589  0.00     5 C
                                    2.20%     2 S               2.394  0.00    22 H
                                   -2.08%     2 P:x             4.589  0.00     2 C
                                    2.04%     2 S               2.394  0.00    17 H
                                   -1.92%     2 P:z             4.589  0.00     9 C
                                   -1.78%     1 P:x            -5.239  0.67     2 C
                                    1.77%     2 S               2.394  0.00    14 H
                                   -1.71%     2 S               2.394  0.00    18 H
                                   -1.48%     2 P:y             4.589  0.00     9 C
                                    1.44%     1 P:y            -5.239  0.67     3 C
                                   -1.37%     2 P:y             4.589  0.00     3 C
                                    1.35%     2 P:y             4.589  0.00     8 C
                                    1.32%     1 S              -6.532  1.00    10 H
                                   -1.25%     2 P:x             4.589  0.00     6 C
                                    1.23%     2 S               2.394  0.00    13 H
                                    1.18%     2 P:z             4.589  0.00     2 C
                                    1.13%     2 S               2.394  0.00    12 H
                                   -1.13%     1 P:x            -5.239  0.67     7 C
                                    1.12%     2 S             -13.620  2.00     7 C
                                   -1.11%     1 P:x            -5.239  0.67     4 C
                                    1.08%     3 S              40.869  0.00    16 H
                                   -1.04%     2 P:y             4.589  0.00     5 C
                                   -1.00%     1 P:y            -5.239  0.67     4 C



 =======================================================================
 Electrostatic potential at the Nuclei due to electrons and other nuclei
 =======================================================================
  
         Atom                  Potential
         ----                  ---------
     1)   C                  14.80227233
     2)   C                  14.77955665
     3)   C                  14.79096177
     4)   C                  14.79253251
     5)   C                  14.79112215
     6)   C                  14.79239068
     7)   C                  14.77465441
     8)   C                  14.78957737
     9)   C                  14.79109595
    10)   H                   1.11264082
    11)   H                   1.11276004
    12)   H                   1.11508681
    13)   H                   1.11476877
    14)   H                   1.11837397
    15)   H                   1.11328897
    16)   H                   1.10963320
    17)   H                   1.11783714
    18)   H                   1.12095719
    19)   H                   1.11068156
    20)   H                   1.11670629
    21)   H                   1.11023761
    22)   H                   1.11601426
    23)   H                   1.11838837
 Mulliken charges used for AMS results%charges...


    =====================
     CALCULATION RESULTS
    =====================

Energy (hartree)            -4.64909956


--------------
Atomic charges
--------------
  Index   Atom    Charge
      1      C    0.4328
      2      C    0.0058
      3      C    0.6248
      4      C    0.2714
      5      C    0.1818
      6      C    0.2582
      7      C   -0.0255
      8      C    0.6607
      9      C    0.6585
     10      H   -0.2315
     11      H   -0.2302
     12      H   -0.1926
     13      H   -0.1960
     14      H   -0.2575
     15      H   -0.2290
     16      H   -0.1963
     17      H   -0.2290
     18      H   -0.2154
     19      H   -0.1942
     20      H   -0.2348
     21      H   -0.1987
     22      H   -0.2241
     23      H   -0.2392


Dipole moment vector    (Debye):     0.02238914   -0.84091526   -0.44252687
              magnitude (Debye):     0.95051027


-----------------------
Molecular orbitals info
-----------------------
n orbitals:              388
n spin:                    1

Note: only printing virtual orbitals with
      energy smaller than HOMO + 100. eV

HOMO (eV):              -4.7449
LUMO (eV):              -2.2809
HOMO-LUMO gap (eV):      2.4641

   Index   Energy (eV)    Occupation
     255       95.1028         0.000       
     254       94.9197         0.000       
     253       94.6634         0.000       
     252       94.2921         0.000       
     251       94.1641         0.000       
     250       93.7639         0.000       
     249       93.1628         0.000       
     248       92.7530         0.000       
     247       92.1272         0.000       
     246       91.8429         0.000       
     245       91.4846         0.000       
     244       90.7785         0.000       
     243       88.7933         0.000       
     242       88.7289         0.000       
     241       87.8978         0.000       
     240       86.8412         0.000       
     239       86.2392         0.000       
     238       85.6085         0.000       
     237       85.3461         0.000       
     236       84.6486         0.000       
     235       84.0904         0.000       
     234       83.6664         0.000       
     233       83.5336         0.000       
     232       82.4881         0.000       
     231       81.9307         0.000       
     230       81.4493         0.000       
     229       81.1843         0.000       
     228       80.8448         0.000       
     227       80.0970         0.000       
     226       79.8680         0.000       
     225       79.7030         0.000       
     224       79.1630         0.000       
     223       78.9674         0.000       
     222       78.7520         0.000       
     221       78.3225         0.000       
     220       78.1540         0.000       
     219       77.8492         0.000       
     218       77.4062         0.000       
     217       77.1597         0.000       
     216       77.1112         0.000       
     215       76.6860         0.000       
     214       76.2989         0.000       
     213       75.9323         0.000       
     212       75.1741         0.000       
     211       74.9259         0.000       
     210       74.6417         0.000       
     209       74.3564         0.000       
     208       73.4144         0.000       
     207       72.7060         0.000       
     206       72.2749         0.000       
     205       71.5502         0.000       
     204       70.6515         0.000       
     203       69.1819         0.000       
     202       68.6702         0.000       
     201       67.5295         0.000       
     200       66.9577         0.000       
     199       66.5585         0.000       
     198       66.1057         0.000       
     197       65.2521         0.000       
     196       64.0774         0.000       
     195       63.9193         0.000       
     194       63.6203         0.000       
     193       62.6019         0.000       
     192       61.9649         0.000       
     191       60.6398         0.000       
     190       60.1055         0.000       
     189       59.7388         0.000       
     188       59.1725         0.000       
     187       58.8891         0.000       
     186       58.2111         0.000       
     185       57.8851         0.000       
     184       57.0705         0.000       
     183       56.9209         0.000       
     182       56.5000         0.000       
     181       55.7919         0.000       
     180       55.4087         0.000       
     179       54.9576         0.000       
     178       54.6417         0.000       
     177       54.2966         0.000       
     176       53.5989         0.000       
     175       53.2849         0.000       
     174       53.1764         0.000       
     173       52.7068         0.000       
     172       51.6942         0.000       
     171       51.3753         0.000       
     170       51.0324         0.000       
     169       50.3161         0.000       
     168       49.7283         0.000       
     167       49.4491         0.000       
     166       47.7377         0.000       
     165       47.6358         0.000       
     164       47.2299         0.000       
     163       46.3061         0.000       
     162       45.8127         0.000       
     161       45.5243         0.000       
     160       44.4303         0.000       
     159       44.3465         0.000       
     158       44.1618         0.000       
     157       42.7139         0.000       
     156       42.0803         0.000       
     155       41.8863         0.000       
     154       41.3201         0.000       
     153       40.2922         0.000       
     152       40.1188         0.000       
     151       40.0175         0.000       
     150       39.4900         0.000       
     149       38.7513         0.000       
     148       38.2054         0.000       
     147       37.7350         0.000       
     146       37.5462         0.000       
     145       36.5420         0.000       
     144       36.3145         0.000       
     143       35.8873         0.000       
     142       35.3170         0.000       
     141       34.9413         0.000       
     140       34.5417         0.000       
     139       34.2402         0.000       
     138       34.1469         0.000       
     137       33.6094         0.000       
     136       33.3807         0.000       
     135       32.6894         0.000       
     134       32.5387         0.000       
     133       32.0573         0.000       
     132       31.3377         0.000       
     131       30.6615         0.000       
     130       30.6139         0.000       
     129       30.2859         0.000       
     128       29.7694         0.000       
     127       29.5219         0.000       
     126       29.3136         0.000       
     125       28.5314         0.000       
     124       28.4528         0.000       
     123       27.8267         0.000       
     122       27.3170         0.000       
     121       27.2739         0.000       
     120       26.7738         0.000       
     119       26.4176         0.000       
     118       25.5115         0.000       
     117       25.3478         0.000       
     116       25.2594         0.000       
     115       24.6054         0.000       
     114       24.3801         0.000       
     113       23.8732         0.000       
     112       23.3585         0.000       
     111       22.7475         0.000       
     110       22.5680         0.000       
     109       22.2449         0.000       
     108       21.8937         0.000       
     107       21.2997         0.000       
     106       20.7727         0.000       
     105       19.9343         0.000       
     104       19.6547         0.000       
     103       18.2333         0.000       
     102       17.7436         0.000       
     101       17.3863         0.000       
     100       16.8793         0.000       
      99       16.6024         0.000       
      98       15.7845         0.000       
      97       15.6589         0.000       
      96       15.1287         0.000       
      95       14.9885         0.000       
      94       14.8287         0.000       
      93       14.4084         0.000       
      92       14.1958         0.000       
      91       13.7765         0.000       
      90       13.3788         0.000       
      89       12.6377         0.000       
      88       12.5456         0.000       
      87       12.0441         0.000       
      86       11.9032         0.000       
      85       11.5336         0.000       
      84       11.4128         0.000       
      83       11.3214         0.000       
      82       11.1501         0.000       
      81       10.6799         0.000       
      80       10.3160         0.000       
      79       10.1935         0.000       
      78        9.6694         0.000       
      77        9.6017         0.000       
      76        9.5399         0.000       
      75        9.2414         0.000       
      74        9.0703         0.000       
      73        8.9480         0.000       
      72        8.7033         0.000       
      71        8.1543         0.000       
      70        7.8356         0.000       
      69        7.6147         0.000       
      68        7.2333         0.000       
      67        7.0593         0.000       
      66        6.9882         0.000       
      65        6.7959         0.000       
      64        6.6949         0.000       
      63        6.3358         0.000       
      62        5.9082         0.000       
      61        5.6734         0.000       
      60        5.5985         0.000       
      59        5.2409         0.000       
      58        5.0459         0.000       
      57        4.4584         0.000       
      56        4.3793         0.000       
      55        4.1148         0.000       
      54        3.9448         0.000       
      53        3.9164         0.000       
      52        3.1842         0.000       
      51        2.8580         0.000       
      50        2.6372         0.000       
      49        2.5797         0.000       
      48        2.3402         0.000       
      47        2.0706         0.000       
      46        1.7684         0.000       
      45        1.4380         0.000       
      44        1.4037         0.000       
      43        1.1648         0.000       
      42        0.9692         0.000       
      41        0.9443         0.000       
      40        0.8213         0.000       
      39        0.2819         0.000       
      38        0.1054         0.000       
      37       -0.1530         0.000       
      36       -0.4291         0.000       
      35       -2.2809         0.000 < LUMO
      34       -4.7449         2.000 < HOMO
      33       -6.4182         2.000       
      32       -7.7415         2.000       
      31       -8.0084         2.000       
      30       -8.3011         2.000       
      29       -8.5518         2.000       
      28       -8.9630         2.000       
      27       -9.0667         2.000       
      26       -9.1379         2.000       
      25       -9.4467         2.000       
      24      -10.0131         2.000       
      23      -10.1062         2.000       
      22      -10.5458         2.000       
      21      -10.6326         2.000       
      20      -11.2111         2.000       
      19      -11.4926         2.000       
      18      -12.5367         2.000       
      17      -12.9434         2.000       
      16      -14.3510         2.000       
      15      -16.4010         2.000       
      14      -16.8530         2.000       
      13      -17.0180         2.000       
      12      -18.5051         2.000       
      11      -19.8422         2.000       
      10      -20.3825         2.000       
       9     -269.6951         2.000       
       8     -269.8473         2.000       
       7     -269.8493         2.000       
       6     -269.8898         2.000       
       5     -269.9154         2.000       
       4     -269.9504         2.000       
       3     -269.9857         2.000       
       2     -270.2815         2.000       
       1     -270.3639         2.000       

AMS application finished. Exiting.
NORMAL TERMINATION
     Total cpu time:      76.69
  Total system time:       0.34
 Total elapsed time:      77.56
NORMAL TERMINATION
