srun: Job 662082 step creation temporarily disabled, retrying (Requested nodes are busy)
srun: Job 662082 step creation still disabled, retrying (Requested nodes are busy)
srun: Job 662082 step creation still disabled, retrying (Requested nodes are busy)
srun: Job 662082 step creation still disabled, retrying (Requested nodes are busy)
srun: Job 662082 step creation still disabled, retrying (Requested nodes are busy)
srun: Job 662082 step creation still disabled, retrying (Requested nodes are busy)
srun: Job 662082 step creation still disabled, retrying (Requested nodes are busy)
srun: Job 662082 step creation still disabled, retrying (Requested nodes are busy)
srun: Job 662082 step creation still disabled, retrying (Requested nodes are busy)
srun: Step created for StepId=662082.7

 *******************************************************************************
 *                                                                             *
 *  --------------------------------                                           *
 *   Amsterdam Modeling Suite (AMS)              2026.103                      *
 *  --------------------------------                                           *
 *                                               r260501 2026-05-01 873454b5   *
 *                                                                             *
 *                                                                             *
 *                              =================                              *
 *                              |               |                              *
 *                              |     A M S     |                              *
 *                              |               |                              *
 *                              =================                              *
 *                                                                             *
 *                                                                             *
 *   Online information and documentation:  https://www.scm.com/support/       *
 *   E-mail:  support@scm.com   info@scm.com                                   *
 *                                                                             *
 *   Scientific publications using AMS results must be properly referenced     *
 *   See the User Manuals (or the web site) for recommended citations          *
 *   The terms and conditions of the End User License Agreement apply to       *
 *   the use of AMS, https://www.scm.com/license-terms/                        *
 *                                                                             *
 **********************  x86_64_linux_intel / intelmpi  ************************
 
 Licensed to: Jong-June Jeon / University of Seoul 2026-06-02 13:44:15
 SCM User ID: u30731
  
 AMS 2026.103  RunTime: Jun02-2026 22:50:14  ShM Nodes: 1  Procs: 1

 AMS jobname: c4_fragA_opt
 AMS jobid  : 241317592

 Start   directory: /gpfs/home1/yeseo1ee/projects/eda-asm-prediction/ADF_800/adf_outputs/batch_002/dipolar_005104/
 Results directory: /gpfs/home1/yeseo1ee/projects/eda-asm-prediction/ADF_800/adf_outputs/batch_002/dipolar_005104/c4_fragA_opt.results/
 Scratch directory: /tmp/amstmp_c4_fragA_opt_kid0.241317592/

 RNG seed: 652225738 -1134516971 1123858395 17409446 -1520739769 1097857148 51268156 511969194



                      ************************************************************************
                      *  ADF 2026.103  RunTime: Jun02-2026 22:50:14  ShM Nodes: 1  Procs: 1  *
                      ************************************************************************
  

       ***************************
       *  GEOMETRY OPTIMIZATION  *
       ***************************

Optimization Method                    Quasi Newton
Optimization Coordinates               Delocalized Coordinates
Optimize lattice                       F
 
 ------------------------------------------------------
 Convergence criteria (Hartree,Angstrom)
 ------------------------------------------------------
 Maximum gradient               0.000100000000
 Maximum rms gradient           0.000066666667
 Maximum step allowed           0.010000000000
 Maximum rms step allowed       0.006666666667
 Maximum energy change allowe   0.000260000000
 Maximum stress energy allowe   0.000500000000
 
Initial model Hessian                  Automatic Hessian
 
------------------------------------
Quasi-Newton Optimizer Parameters
------------------------------------
Hessian Update Method                  BFGS
Maximum number of steps                  200
First GDIIS cycle                          0
Maximum GDIIS vectors                      0
Trust radius (bohr)                        0.200000
Trust radius varies                        T
Constraints converged at all steps         T
Use projector                              T
 
 Rigid motions settings for: old optimizer
 Atomic rotations (x,y,z):     T T T
 Atomic translations (x,y,z):  T T T
 Tolerance:                  1.000000000000000E-006

--------
Geometry
--------
Formula: C11H11N3O
Atoms
  Index Symbol   x (angstrom)   y (angstrom)   z (angstrom)
      1      N    -1.91505000    -1.35995000    -0.64881000
      2      C    -3.00875000    -1.80372000    -1.31385000
      3      C    -4.17423000    -0.84888000    -1.49372000
      4      O    -3.04005000    -2.93979000    -1.80994000
      5      N    -1.94601000    -0.29648000     0.17242000
      6      C    -2.67199000    -0.42370000     1.43547000
      7      C    -0.88435000     0.53503000    -0.00050000
      8      C    -0.52307000     0.69865000    -1.38083000
      9      N    -0.20646000     0.87472000    -2.48702000
     10      C    -0.28723000     1.46911000     0.95910000
     11      C    -0.26095000     1.24223000     2.35362000
     12      C     0.45012000     2.09201000     3.19671000
     13      C     1.15989000     3.18328000     2.68063000
     14      C     1.15095000     3.41598000     1.30472000
     15      C     0.44178000     2.56803000     0.45464000
     16      H    -3.84457000     0.19485000    -1.58841000
     17      H    -4.73376000    -1.15253000    -2.38848000
     18      H    -4.85372000    -0.91756000    -0.62883000
     19      H    -2.85380000     0.56960000     1.86117000
     20      H    -2.10995000    -1.04584000     2.14754000
     21      H    -3.63246000    -0.90917000     1.23120000
     22      H    -0.75766000     0.37981000     2.78950000
     23      H     0.46254000     1.88935000     4.26982000
     24      H     1.72185000     3.83964000     3.34862000
     25      H     1.70794000     4.25498000     0.88292000
     26      H     0.45637000     2.76301000    -0.61772000

Total System Charge              0.00000


----------------
ADF Engine Input
----------------
 
   Basis
     Type TZ2P
     Core None
   End
   XC
     GGA BLYP
     Dispersion GRIMME3 BJDAMP
   End
   Symmetry NOSYM
   NumericalQuality Normal
   Unrestricted No
   SCF
     Iterations 200
     Converge 1.0e-6
   End
   Save TAPE21
 

 Title: *** (NO TITLE) ***

Challenging geometry: could not add a dihedral for atom    9
 Using automatic Hessian for delocalized coordinates.
 *** GO1_GOStep1 ***

 Energy gradients wrt nuclear displacements
 ==========================================

     Atom      Cartesian (a.u./angstrom)
                 X         Y         Z
 ----------------------------------------
     1 N    -0.022152  0.019505  0.008553
     2 C     0.032209  0.027643  0.010058
     3 C     0.018395 -0.011043  0.006869
     4 O    -0.004426 -0.008940 -0.004728
     5 N    -0.064648  0.019125 -0.006223
     6 C     0.027433 -0.009700 -0.019417
     7 C     0.033574 -0.056147  0.011232
     8 C    -0.005599  0.019681 -0.013989
     9 N    -0.002199 -0.005074  0.006905
    10 C    -0.004363  0.017303  0.000885
    11 C     0.001416  0.004715 -0.007633
    12 C     0.000316 -0.000705 -0.008736
    13 C    -0.002470 -0.003038 -0.009160
    14 C     0.000214 -0.002844  0.007249
    15 C    -0.004962 -0.012594  0.006712
    16 H     0.002458  0.001581  0.000663
    17 H    -0.002147 -0.003412 -0.005537
    18 H    -0.000698 -0.000273  0.003758
    19 H    -0.001372  0.003146 -0.000552
    20 H     0.002632 -0.002077  0.008268
    21 H    -0.006052 -0.000828  0.001715
    22 H    -0.003352 -0.004357  0.001777
    23 H    -0.000237 -0.001254  0.004806
    24 H     0.002850  0.003394  0.002992
    25 H     0.003099  0.003475 -0.001985
    26 H     0.000081  0.002717 -0.004481
 ----------------------------------------
 
----------------------------------------------------------------------
Geometry Convergence after Step   1       (Hartree/Angstrom,Angstrom)
----------------------------------------------------------------------
current energy                               -5.91435532 Hartree
energy change                      -5.91435532     0.00026000    F
constrained gradient max            0.06462461     0.00010000    F
constrained gradient rms            0.01413824     0.00006667    F
gradient max                        0.06462408
gradient rms                        0.01413824
cart. step max                      0.16077398     0.01000000    F
cart. step rms                      0.05751181     0.00666667    F
 

--------
Geometry
--------
Formula: C11H11N3O
Atoms
  Index Symbol   x (angstrom)   y (angstrom)   z (angstrom)
      1      N    -1.90055439    -1.43331351    -0.69451759
      2      C    -3.07904536    -1.82001731    -1.28511542
      3      C    -4.21007694    -0.80055311    -1.41384465
      4      O    -3.19730432    -2.95561814    -1.75829550
      5      N    -1.86207385    -0.34482277     0.11530927
      6      C    -2.60741595    -0.44264328     1.37976039
      7      C    -0.81977835     0.51652324    -0.05137169
      8      C    -0.40577461     0.65065836    -1.41700497
      9      N    -0.04568602     0.81635598    -2.51467698
     10      C    -0.26084468     1.45632514     0.92782105
     11      C    -0.26732428     1.22654905     2.32622518
     12      C     0.39310350     2.09267064     3.19532838
     13      C     1.08533780     3.20596971     2.70403311
     14      C     1.11102748     3.44355584     1.32641794
     15      C     0.45459696     2.58074368     0.45007612
     16      H    -3.83777397     0.22320680    -1.54842683
     17      H    -4.83842281    -1.08441169    -2.26454163
     18      H    -4.84002340    -0.81896092    -0.51173092
     19      H    -2.78091332     0.55448092     1.79643339
     20      H    -2.05833553    -1.06621232     2.09494833
     21      H    -3.56656437    -0.92070089     1.16555705
     22      H    -0.75203906     0.35223164     2.74494132
     23      H     0.37912969     1.88684591     4.26544870
     24      H     1.60601851     3.87421056     3.38936994
     25      H     1.65374063     4.29929393     0.92629280
     26      H     0.49437666     2.78029252    -0.61846678

Total System Charge              0.00000

 *** GO1_GOStep2 ***

 Energy gradients wrt nuclear displacements
 ==========================================

     Atom      Cartesian (a.u./angstrom)
                 X         Y         Z
 ----------------------------------------
     1 N    -0.015739 -0.010945  0.009268
     2 C     0.017587  0.018980  0.002866
     3 C     0.008885 -0.007968  0.002358
     4 O    -0.001937 -0.006073 -0.002059
     5 N    -0.045727  0.022631 -0.009913
     6 C     0.022005 -0.010303 -0.011575
     7 C     0.035054 -0.025696  0.015112
     8 C    -0.008112  0.013619 -0.001542
     9 N     0.001724 -0.002420 -0.004796
    10 C    -0.007668  0.011389 -0.003555
    11 C    -0.000186  0.002538 -0.002151
    12 C     0.000243 -0.001351 -0.003388
    13 C    -0.000767 -0.001688 -0.003791
    14 C     0.000545 -0.001212  0.002514
    15 C     0.000017 -0.005349  0.003240
    16 H     0.000984  0.000903  0.000005
    17 H    -0.002068 -0.000649 -0.002140
    18 H     0.000141  0.000126  0.002945
    19 H    -0.000869  0.002214 -0.000267
    20 H     0.001413 -0.000211  0.004776
    21 H    -0.004700 -0.000347  0.000071
    22 H    -0.003077 -0.002535  0.000649
    23 H    -0.000135 -0.000425  0.002229
    24 H     0.001149  0.001316  0.001516
    25 H     0.001443  0.001379 -0.000938
    26 H    -0.000203  0.002075 -0.001435
 ----------------------------------------

 dE(predicted):    -0.60648E-02, dE(actual):    -0.55979E-02, Trust radius:    0.400000, all in a.u.
 
----------------------------------------------------------------------
Geometry Convergence after Step   2       (Hartree/Angstrom,Angstrom)
----------------------------------------------------------------------
current energy                               -5.91995326 Hartree
energy change                      -0.00559795     0.00026000    F
constrained gradient max            0.04570451     0.00010000    F
constrained gradient rms            0.00984101     0.00006667    F
gradient max                        0.04570400
gradient rms                        0.00984101
cart. step max                      0.14775702     0.01000000    F
cart. step rms                      0.06008717     0.00666667    F
 

--------
Geometry
--------
Formula: C11H11N3O
Atoms
  Index Symbol   x (angstrom)   y (angstrom)   z (angstrom)
      1      N    -1.88755891    -1.46248024    -0.72267068
      2      C    -3.10997338    -1.78740743    -1.30289995
      3      C    -4.20206208    -0.71121344    -1.41833806
      4      O    -3.26720133    -2.89379758    -1.81987776
      5      N    -1.81618962    -0.42084704     0.15016874
      6      C    -2.63691604    -0.50965642     1.38143292
      7      C    -0.81608379     0.47985288    -0.01678679
      8      C    -0.33837338     0.54282333    -1.36244810
      9      N     0.06715755     0.66859896    -2.44686387
     10      C    -0.24284497     1.41947626     0.95733689
     11      C    -0.18778738     1.20367915     2.35937035
     12      C     0.44842821     2.11666513     3.20043631
     13      C     1.05810143     3.26352486     2.67886068
     14      C     1.03199438     3.48369037     1.29702806
     15      C     0.40240891     2.57502901     0.44870036
     16      H    -3.78933312     0.29907332    -1.52640144
     17      H    -4.82687181    -0.95036373    -2.28197701
     18      H    -4.84861601    -0.72301642    -0.53027598
     19      H    -2.81908958     0.48278922     1.80123359
     20      H    -2.13213808    -1.15073429     2.10855926
     21      H    -3.58256543    -0.97749760     1.10988592
     22      H    -0.60442009     0.31048368     2.80303320
     23      H     0.47992616     1.92172781     4.27025828
     24      H     1.55752673     3.96797896     3.34018741
     25      H     1.51114113     4.36344760     0.87349722
     26      H     0.39872050     2.76083366    -0.62147957

Total System Charge              0.00000

 *** GO1_GOStep3 ***

 Energy gradients wrt nuclear displacements
 ==========================================

     Atom      Cartesian (a.u./angstrom)
                 X         Y         Z
 ----------------------------------------
     1 N    -0.002518 -0.016239 -0.001773
     2 C     0.003864  0.009285  0.004075
     3 C     0.001591 -0.004465 -0.002603
     4 O     0.000577 -0.000846 -0.002069
     5 N    -0.017568  0.015947 -0.001001
     6 C     0.006225 -0.008259 -0.004293
     7 C     0.018354 -0.005242  0.006770
     8 C    -0.002969  0.007416 -0.004507
     9 N    -0.002598 -0.003834  0.004647
    10 C    -0.006628  0.003117 -0.006446
    11 C     0.002730  0.000427  0.005806
    12 C    -0.000122 -0.001094  0.000383
    13 C     0.000871  0.000527 -0.000198
    14 C     0.000004  0.000312  0.000085
    15 C     0.003075 -0.002589 -0.000179
    16 H    -0.000425  0.000273 -0.000562
    17 H    -0.001320  0.000705  0.000615
    18 H     0.000589  0.000047  0.001188
    19 H    -0.002948 -0.000619 -0.000121
    20 H    -0.001549  0.000266 -0.000100
    21 H    -0.001513 -0.000028 -0.000195
    22 H     0.002765  0.004365  0.000297
    23 H    -0.000066  0.000295  0.000053
    24 H     0.000139 -0.000187 -0.000041
    25 H    -0.000050 -0.000256 -0.000060
    26 H    -0.000509  0.000675  0.000226
 ----------------------------------------

 dE(predicted):    -0.49822E-02, dE(actual):    -0.39165E-02, Trust radius:    0.800000, all in a.u.
 
----------------------------------------------------------------------
Geometry Convergence after Step   3       (Hartree/Angstrom,Angstrom)
----------------------------------------------------------------------
current energy                               -5.92386975 Hartree
energy change                      -0.00391649     0.00026000    F
constrained gradient max            0.01835581     0.00010000    F
constrained gradient rms            0.00487548     0.00006667    F
gradient max                        0.01835613
gradient rms                        0.00487548
cart. step max                      0.21102912     0.01000000    F
cart. step rms                      0.07716962     0.00666667    F
 

--------
Geometry
--------
Formula: C11H11N3O
Atoms
  Index Symbol   x (angstrom)   y (angstrom)   z (angstrom)
      1      N    -1.89156945    -1.45723539    -0.77623141
      2      C    -3.17429054    -1.76250800    -1.25637401
      3      C    -4.22721405    -0.63802599    -1.35311649
      4      O    -3.40162958    -2.87254957    -1.73013366
      5      N    -1.73793965    -0.45133678     0.11995299
      6      C    -2.51131106    -0.47728279     1.39391059
      7      C    -0.77665905     0.46271057    -0.10110761
      8      C    -0.21658597     0.43599607    -1.41456704
      9      N     0.26723557     0.51081382    -2.47156458
     10      C    -0.19425402     1.37541619     0.89093682
     11      C    -0.19879707     1.13767055     2.28760207
     12      C     0.35292229     2.06801853     3.16952156
     13      C     0.92050878     3.25512246     2.69228481
     14      C     0.94540721     3.49837444     1.31334673
     15      C     0.39906683     2.57589069     0.42386795
     16      H    -3.77615283     0.35096995    -1.49420746
     17      H    -4.88057014    -0.87076253    -2.19555726
     18      H    -4.85231506    -0.60556127    -0.45196485
     19      H    -2.62140823     0.52990993     1.80143423
     20      H    -1.99387722    -1.12634036     2.10329806
     21      H    -3.48366570    -0.91185140     1.17784618
     22      H    -0.60872404     0.22311043     2.69514149
     23      H     0.34457311     1.85841901     4.23609485
     24      H     1.34649761     3.97582849     3.38535918
     25      H     1.39077183     4.41150771     0.92693959
     26      H     0.42736044     2.77635524    -0.64274272

Total System Charge              0.00000

 *** GO1_GOStep4 ***

 Energy gradients wrt nuclear displacements
 ==========================================

     Atom      Cartesian (a.u./angstrom)
                 X         Y         Z
 ----------------------------------------
     1 N     0.005939 -0.010816 -0.010706
     2 C    -0.002706  0.004408  0.001159
     3 C    -0.003228 -0.001080 -0.003286
     4 O     0.001426  0.000057 -0.001423
     5 N     0.006416  0.009348  0.009908
     6 C     0.007569  0.001170  0.005495
     7 C    -0.012143  0.003559 -0.003296
     8 C     0.003856 -0.002451 -0.001501
     9 N    -0.003080 -0.002138  0.002583
    10 C     0.003733 -0.008215 -0.003323
    11 C    -0.004570 -0.002375  0.000921
    12 C    -0.000294 -0.000438  0.001406
    13 C     0.000223  0.001310  0.001296
    14 C     0.000537  0.000391 -0.000496
    15 C    -0.000343  0.003618 -0.001553
    16 H    -0.000771 -0.000019 -0.000635
    17 H     0.000079  0.000401  0.001856
    18 H     0.000262  0.000818 -0.000833
    19 H    -0.000113  0.001638  0.002069
    20 H     0.000436  0.001475 -0.000506
    21 H     0.002346  0.001240  0.001498
    22 H    -0.004684 -0.000624 -0.000295
    23 H    -0.000131  0.000183 -0.001153
    24 H    -0.000433 -0.000838 -0.000704
    25 H    -0.000378 -0.000931 -0.000019
    26 H     0.000054  0.000308  0.001538
 ----------------------------------------

 dE(predicted):    -0.26246E-02, dE(actual):    -0.88541E-03, Trust radius:    0.800000, all in a.u.
 
----------------------------------------------------------------------
Geometry Convergence after Step   4       (Hartree/Angstrom,Angstrom)
----------------------------------------------------------------------
current energy                               -5.92475516 Hartree
energy change                      -0.00088541     0.00026000    F
constrained gradient max            0.01213686     0.00010000    F
constrained gradient rms            0.00366415     0.00006667    F
gradient max                        0.01213659
gradient rms                        0.00366415
cart. step max                      0.21199026     0.01000000    F
cart. step rms                      0.07681339     0.00666667    F
 

--------
Geometry
--------
Formula: C11H11N3O
Atoms
  Index Symbol   x (angstrom)   y (angstrom)   z (angstrom)
      1      N    -1.87740057    -1.46490957    -0.76260824
      2      C    -3.16116252    -1.81051160    -1.21386005
      3      C    -4.22994226    -0.70033453    -1.30415141
      4      O    -3.38884038    -2.94177190    -1.63260476
      5      N    -1.73383477    -0.43110786     0.09246268
      6      C    -2.62151937    -0.34358597     1.28769963
      7      C    -0.73763257     0.45056327    -0.10670735
      8      C    -0.15034143     0.43923630    -1.40919179
      9      N     0.38046854     0.53692245    -2.44394924
     10      C    -0.16625192     1.36005606     0.89610310
     11      C    -0.09987895     1.07403899     2.27971365
     12      C     0.44054459     2.00215977     3.17103752
     13      C     0.92420755     3.23345647     2.71412183
     14      C     0.89064644     3.51889008     1.34359361
     15      C     0.36028458     2.59621477     0.44483871
     16      H    -3.79135840     0.29278167    -1.45536007
     17      H    -4.88526013    -0.94899099    -2.14102720
     18      H    -4.84776633    -0.67112712    -0.39786573
     19      H    -2.70685013     0.69090745     1.62501834
     20      H    -2.20586749    -0.97486077     2.07654622
     21      H    -3.59261640    -0.74144757     1.00424478
     22      H    -0.41606053     0.11243707     2.66415235
     23      H     0.49562056     1.75326177     4.22806103
     24      H     1.33930999     3.95333124     3.41519129
     25      H     1.27944367     4.46376970     0.97174776
     26      H     0.34943824     2.82328083    -0.61723666

Total System Charge              0.00000

 *** GO1_GOStep5 ***

 Energy gradients wrt nuclear displacements
 ==========================================

     Atom      Cartesian (a.u./angstrom)
                 X         Y         Z
 ----------------------------------------
     1 N     0.001238 -0.004782 -0.002264
     2 C    -0.000491 -0.001264 -0.006757
     3 C     0.000793  0.001299  0.005034
     4 O    -0.001080 -0.001439 -0.000380
     5 N     0.011639  0.007300  0.007971
     6 C    -0.003305  0.003058 -0.005502
     7 C    -0.010538  0.000826  0.003651
     8 C    -0.002229  0.001802 -0.000071
     9 N     0.002446 -0.000465 -0.002552
    10 C     0.003222 -0.009149 -0.002073
    11 C    -0.003836 -0.000496  0.002856
    12 C     0.000250 -0.000138 -0.000148
    13 C    -0.000249  0.001109  0.000847
    14 C     0.000091 -0.000121 -0.000216
    15 C     0.000342  0.002255 -0.001213
    16 H     0.000166 -0.000179 -0.000338
    17 H     0.000758 -0.000668  0.001764
    18 H     0.002136  0.001554  0.003841
    19 H    -0.001399  0.000428  0.000064
    20 H     0.000677 -0.000412 -0.001396
    21 H    -0.002809 -0.001622 -0.003162
    22 H     0.002009  0.002319  0.000563
    23 H     0.000034 -0.000035 -0.000848
    24 H    -0.000315 -0.000407 -0.000446
    25 H    -0.000254 -0.000592 -0.000074
    26 H     0.000703 -0.000178  0.000850
 ----------------------------------------

 dE(predicted):    -0.19140E-02, dE(actual):    -0.78257E-03, Trust radius:    0.800000, all in a.u.
 
----------------------------------------------------------------------
Geometry Convergence after Step   5       (Hartree/Angstrom,Angstrom)
----------------------------------------------------------------------
current energy                               -5.92553773 Hartree
energy change                      -0.00078257     0.00026000    F
constrained gradient max            0.01162889     0.00010000    F
constrained gradient rms            0.00310304     0.00006667    F
gradient max                        0.01162973
gradient rms                        0.00310304
cart. step max                      0.19931664     0.01000000    F
cart. step rms                      0.06848310     0.00666667    F
 

--------
Geometry
--------
Formula: C11H11N3O
Atoms
  Index Symbol   x (angstrom)   y (angstrom)   z (angstrom)
      1      N    -1.91053151    -1.49886191    -0.67328823
      2      C    -3.18491308    -1.83767688    -1.15644096
      3      C    -4.18949675    -0.69875580    -1.43463666
      4      O    -3.42976411    -2.99007274    -1.50033163
      5      N    -1.76278691    -0.43959830     0.14614044
      6      C    -2.66013721    -0.31139822     1.33074565
      7      C    -0.76080353     0.43674972    -0.06753984
      8      C    -0.20478087     0.44681131    -1.38379773
      9      N     0.30855850     0.56721815    -2.42630578
     10      C    -0.17940723     1.35498257     0.92300836
     11      C    -0.01331664     1.04036447     2.29111410
     12      C     0.54859489     1.96788157     3.16968976
     13      C     0.95910220     3.22545355     2.71294014
     14      C     0.83375778     3.53750845     1.35344813
     15      C     0.28358196     2.61422531     0.46720194
     16      H    -3.69374830     0.26061062    -1.62276106
     17      H    -4.77592690    -0.99163191    -2.30796309
     18      H    -4.88658357    -0.57095083    -0.59718237
     19      H    -2.73469762     0.73305027     1.63736695
     20      H    -2.25801630    -0.92449502     2.14099541
     21      H    -3.63324655    -0.70629052     1.05032862
     22      H    -0.25564591     0.05352268     2.66636994
     23      H     0.68258722     1.69673346     4.21432790
     24      H     1.39174895     3.94486517     3.40410305
     25      H     1.16839812     4.50267391     0.98056161
     26      H     0.20485335     2.85974093    -0.58812466

Total System Charge              0.00000

 *** GO1_GOStep6 ***

 Energy gradients wrt nuclear displacements
 ==========================================

     Atom      Cartesian (a.u./angstrom)
                 X         Y         Z
 ----------------------------------------
     1 N    -0.001406 -0.008072 -0.002929
     2 C    -0.001399 -0.000522  0.001579
     3 C    -0.002010 -0.000200 -0.000497
     4 O     0.000402 -0.000153 -0.003086
     5 N     0.008833  0.005556  0.007150
     6 C    -0.005491  0.001503 -0.005742
     7 C    -0.004718  0.000860  0.007911
     8 C    -0.005463  0.004232  0.000743
     9 N     0.004981  0.000168 -0.005300
    10 C     0.000235 -0.007924 -0.001676
    11 C    -0.002109  0.000807  0.003603
    12 C     0.000118 -0.000780 -0.000289
    13 C     0.000054  0.001389  0.000427
    14 C    -0.000014 -0.000281 -0.000129
    15 C     0.002028  0.001418 -0.001414
    16 H     0.000012  0.000193 -0.000497
    17 H     0.000234 -0.000251  0.001415
    18 H     0.000648  0.001251  0.000427
    19 H    -0.001375 -0.000118 -0.000586
    20 H     0.000969 -0.000615 -0.001520
    21 H     0.000616 -0.000625  0.000289
    22 H     0.004638  0.003309  0.000576
    23 H     0.000101 -0.000078 -0.000753
    24 H    -0.000302 -0.000298 -0.000336
    25 H    -0.000356 -0.000460  0.000077
    26 H     0.000774 -0.000311  0.000557
 ----------------------------------------

 dE(predicted):    -0.30332E-02, dE(actual):    -0.81139E-03, Trust radius:    0.800000, all in a.u.
 
----------------------------------------------------------------------
Geometry Convergence after Step   6       (Hartree/Angstrom,Angstrom)
----------------------------------------------------------------------
current energy                               -5.92634912 Hartree
energy change                      -0.00081139     0.00026000    F
constrained gradient max            0.00882270     0.00010000    F
constrained gradient rms            0.00288163     0.00006667    F
gradient max                        0.00882416
gradient rms                        0.00288163
cart. step max                      0.11524591     0.01000000    F
cart. step rms                      0.02920481     0.00666667    F
 

--------
Geometry
--------
Formula: C11H11N3O
Atoms
  Index Symbol   x (angstrom)   y (angstrom)   z (angstrom)
      1      N    -1.92132041    -1.47808073    -0.66555603
      2      C    -3.19241699    -1.83894283    -1.13297254
      3      C    -4.18746168    -0.71162586    -1.47581056
      4      O    -3.45206544    -3.01148761    -1.38508572
      5      N    -1.77671470    -0.41538940     0.14055879
      6      C    -2.65522142    -0.29595857     1.34054157
      7      C    -0.76300367     0.45204882    -0.07505781
      8      C    -0.17908226     0.42241571    -1.37679940
      9      N     0.32394194     0.51364987    -2.42434250
     10      C    -0.19231805     1.37854061     0.91615384
     11      C     0.00321355     1.03379330     2.27149278
     12      C     0.57548395     1.94438967     3.16101792
     13      C     0.97971946     3.20961312     2.72034263
     14      C     0.81717957     3.55472041     1.37239025
     15      C     0.24878457     2.64995685     0.47767824
     16      H    -3.68560155     0.23927403    -1.68880519
     17      H    -4.75670223    -1.03565995    -2.35072136
     18      H    -4.90126941    -0.55443246    -0.65730568
     19      H    -2.70183807     0.74362359     1.66765591
     20      H    -2.26210556    -0.93232879     2.13773348
     21      H    -3.64138542    -0.66138156     1.06160841
     22      H    -0.25614426     0.04395642     2.63130182
     23      H     0.72197597     1.65498998     4.19972311
     24      H     1.42594460     3.91519399     3.41793276
     25      H     1.13931601     4.53053455     1.01517941
     26      H     0.13647152     2.92124684    -0.56888413

Total System Charge              0.00000

 *** GO1_GOStep7 ***

 Energy gradients wrt nuclear displacements
 ==========================================

     Atom      Cartesian (a.u./angstrom)
                 X         Y         Z
 ----------------------------------------
     1 N    -0.002095 -0.004899 -0.000781
     2 C     0.002171  0.002027 -0.004771
     3 C    -0.002569 -0.000928  0.001170
     4 O     0.000201 -0.000407  0.001373
     5 N    -0.000774  0.003712  0.005111
     6 C    -0.001201 -0.001696 -0.002867
     7 C    -0.000697  0.001660  0.004691
     8 C     0.004138  0.001567 -0.006412
     9 N    -0.002355 -0.000469  0.003306
    10 C    -0.002185 -0.003966 -0.001616
    11 C     0.001693  0.000235  0.000700
    12 C    -0.000726 -0.000309 -0.000587
    13 C     0.001051  0.000114  0.000117
    14 C    -0.000664 -0.000141 -0.000307
    15 C     0.002202  0.001593 -0.000376
    16 H     0.000425  0.000149 -0.000463
    17 H     0.000091 -0.000629  0.000487
    18 H     0.000304  0.001438 -0.000102
    19 H    -0.000569 -0.000163 -0.000767
    20 H    -0.000206 -0.000114  0.000524
    21 H     0.000715 -0.000871  0.000278
    22 H     0.001370  0.002030  0.000808
    23 H    -0.000228 -0.000109  0.000065
    24 H    -0.000168  0.000045  0.000156
    25 H    -0.000005  0.000004 -0.000108
    26 H     0.000081  0.000126  0.000369
 ----------------------------------------

 dE(predicted):    -0.65902E-03, dE(actual):    -0.66448E-03, Trust radius:    0.800000, all in a.u.
 
----------------------------------------------------------------------
Geometry Convergence after Step   7       (Hartree/Angstrom,Angstrom)
----------------------------------------------------------------------
current energy                               -5.92701360 Hartree
energy change                      -0.00066448     0.00026000    F
constrained gradient max            0.00641607     0.00010000    F
constrained gradient rms            0.00188332     0.00006667    F
gradient max                        0.00641594
gradient rms                        0.00188332
cart. step max                      0.13139325     0.01000000    F
cart. step rms                      0.03925808     0.00666667    F
 

--------
Geometry
--------
Formula: C11H11N3O
Atoms
  Index Symbol   x (angstrom)   y (angstrom)   z (angstrom)
      1      N    -1.93120732    -1.45518803    -0.68011143
      2      C    -3.21294562    -1.84417676    -1.09140421
      3      C    -4.21421164    -0.72645601    -1.44267745
      4      O    -3.44971002    -3.01508548    -1.36938192
      5      N    -1.76855469    -0.39412777     0.11196837
      6      C    -2.63407986    -0.24143792     1.32050736
      7      C    -0.73228155     0.44703057    -0.10254813
      8      C    -0.10514187     0.36578576    -1.37772044
      9      N     0.43703137     0.41884247    -2.40866955
     10      C    -0.18191146     1.38242218     0.89437131
     11      C     0.01817619     1.01317696     2.24057529
     12      C     0.57682145     1.91559305     3.14771470
     13      C     0.95293466     3.19691607     2.72912926
     14      C     0.77600442     3.56810701     1.38951293
     15      C     0.22160726     2.67063383     0.47798685
     16      H    -3.72618175     0.24261698    -1.59560299
     17      H    -4.73527309    -1.02825669    -2.35568230
     18      H    -4.96896546    -0.62161323    -0.65297837
     19      H    -2.60562473     0.79151765     1.66902696
     20      H    -2.28376782    -0.91837978     2.10395308
     21      H    -3.64516154    -0.52998832     1.03782074
     22      H    -0.23556107     0.01133601     2.57569639
     23      H     0.73318677     1.60937437     4.18048896
     24      H     1.39272945     3.89594911     3.43773492
     25      H     1.07542885     4.55869797     1.05308636
     26      H     0.09403908     2.95936999    -0.56282667

Total System Charge              0.00000

 *** GO1_GOStep8 ***

 Energy gradients wrt nuclear displacements
 ==========================================

     Atom      Cartesian (a.u./angstrom)
                 X         Y         Z
 ----------------------------------------
     1 N    -0.001711  0.003753 -0.003107
     2 C    -0.003646 -0.002798  0.013454
     3 C     0.002441 -0.000669 -0.003404
     4 O     0.002092  0.001446 -0.006061
     5 N    -0.003644  0.001740 -0.001857
     6 C     0.002727 -0.002220 -0.000477
     7 C     0.001231  0.000791  0.002562
     8 C     0.004367 -0.002231 -0.003566
     9 N    -0.002746  0.000507  0.002844
    10 C    -0.001050 -0.001792 -0.000220
    11 C    -0.000039  0.000247 -0.001733
    12 C     0.000102  0.000193 -0.000312
    13 C    -0.000114 -0.000353  0.000250
    14 C    -0.000518 -0.000409 -0.000725
    15 C     0.000582  0.001638  0.000382
    16 H     0.000550  0.000097 -0.000311
    17 H    -0.000644 -0.000363 -0.000231
    18 H     0.001419  0.000431  0.000573
    19 H     0.000619  0.000660 -0.000199
    20 H    -0.000976  0.000464  0.001407
    21 H     0.000086 -0.001486 -0.000182
    22 H    -0.001102 -0.000027  0.000573
    23 H    -0.000035 -0.000256  0.000437
    24 H     0.000224  0.000111  0.000271
    25 H     0.000158  0.000244 -0.000252
    26 H    -0.000374  0.000282 -0.000118
 ----------------------------------------

 dE(predicted):    -0.45581E-03, dE(actual):    -0.22065E-03, Trust radius:    0.800000, all in a.u.
 
----------------------------------------------------------------------
Geometry Convergence after Step   8       (Hartree/Angstrom,Angstrom)
----------------------------------------------------------------------
current energy                               -5.92723425 Hartree
energy change                      -0.00022065     0.00026000    T
constrained gradient max            0.01346575     0.00010000    F
constrained gradient rms            0.00228617     0.00006667    F
gradient max                        0.01346547
gradient rms                        0.00228617
cart. step max                      0.15975815     0.01000000    F
cart. step rms                      0.05027175     0.00666667    F
 

--------
Geometry
--------
Formula: C11H11N3O
Atoms
  Index Symbol   x (angstrom)   y (angstrom)   z (angstrom)
      1      N    -1.93807229    -1.46227394    -0.65929956
      2      C    -3.22753154    -1.84813137    -1.06179074
      3      C    -4.21959540    -0.73248184    -1.45035504
      4      O    -3.49781387    -3.02916882    -1.24585415
      5      N    -1.75557536    -0.38986432     0.10395296
      6      C    -2.62953731    -0.16065009     1.29933724
      7      C    -0.70536312     0.42938152    -0.12062154
      8      C    -0.05643591     0.31555836    -1.37807233
      9      N     0.53105916     0.34719851    -2.38728860
     10      C    -0.16245819     1.36830389     0.88027093
     11      C     0.08254195     0.96818057     2.20883456
     12      C     0.61746490     1.87012436     3.13153388
     13      C     0.91635430     3.18075052     2.74243158
     14      C     0.69766645     3.58002706     1.41681705
     15      C     0.16926232     2.68208978     0.48959279
     16      H    -3.73423939     0.24097086    -1.57775289
     17      H    -4.69788535    -1.03278187    -2.38700014
     18      H    -5.01144126    -0.64214964    -0.69619435
     19      H    -2.52469056     0.86807980     1.64357217
     20      H    -2.34045844    -0.85773834     2.08920517
     21      H    -3.65581149    -0.37023017     1.00332111
     22      H    -0.11074972    -0.05904728     2.50951169
     23      H     0.81576950     1.54282407     4.15034528
     24      H     1.33701852     3.88081013     3.46130205
     25      H     0.94014799     4.59400938     1.10573318
     26      H     0.00775410     2.98886888    -0.54156227

Total System Charge              0.00000

 *** GO1_GOStep9 ***

 Energy gradients wrt nuclear displacements
 ==========================================

     Atom      Cartesian (a.u./angstrom)
                 X         Y         Z
 ----------------------------------------
     1 N     0.001363  0.006822  0.002263
     2 C    -0.001124 -0.003443 -0.001626
     3 C    -0.001046  0.000369 -0.001063
     4 O     0.000357  0.000617 -0.000353
     5 N    -0.000655 -0.004640 -0.003026
     6 C     0.002479  0.001315  0.000988
     7 C     0.000836  0.001208  0.000996
     8 C    -0.002653 -0.003364  0.003009
     9 N     0.002098  0.001194 -0.001919
    10 C    -0.000859 -0.001055  0.001172
    11 C    -0.002289  0.000448 -0.002202
    12 C     0.001015  0.000934  0.000297
    13 C    -0.001255 -0.000695  0.000801
    14 C     0.000029 -0.000676 -0.001166
    15 C    -0.000300  0.001065  0.000118
    16 H     0.000602 -0.000519  0.000207
    17 H    -0.000409 -0.000529  0.000575
    18 H     0.000404  0.001405 -0.000160
    19 H     0.001144  0.000817  0.000521
    20 H    -0.000564  0.000899  0.000477
    21 H     0.000615 -0.000803  0.000502
    22 H    -0.000196 -0.001066 -0.000062
    23 H     0.000316 -0.000301  0.000218
    24 H     0.000365 -0.000052  0.000025
    25 H    -0.000096  0.000155 -0.000123
    26 H    -0.000176 -0.000106 -0.000469
 ----------------------------------------

 dE(predicted):    -0.43580E-03, dE(actual):    -0.36357E-03, Trust radius:    0.800000, all in a.u.
 
----------------------------------------------------------------------
Geometry Convergence after Step   9       (Hartree/Angstrom,Angstrom)
----------------------------------------------------------------------
current energy                               -5.92759782 Hartree
energy change                      -0.00036357     0.00026000    F
constrained gradient max            0.00683188     0.00010000    F
constrained gradient rms            0.00153537     0.00006667    F
gradient max                        0.00683174
gradient rms                        0.00153537
cart. step max                      0.09966209     0.01000000    F
cart. step rms                      0.02780303     0.00666667    F
 

--------
Geometry
--------
Formula: C11H11N3O
Atoms
  Index Symbol   x (angstrom)   y (angstrom)   z (angstrom)
      1      N    -1.92656816    -1.45428222    -0.64792957
      2      C    -3.20664412    -1.86627728    -1.05197746
      3      C    -4.23154776    -0.78040048    -1.43874590
      4      O    -3.45121615    -3.05482150    -1.22548477
      5      N    -1.76514143    -0.36389188     0.09761357
      6      C    -2.66023826    -0.13010207     1.27667033
      7      C    -0.71724385     0.45957600    -0.12876952
      8      C    -0.07648110     0.35436876    -1.39126312
      9      N     0.49415137     0.38880693    -2.40942251
     10      C    -0.15879610     1.38507865     0.87789949
     11      C     0.08047918     0.97185371     2.20433293
     12      C     0.62049207     1.86157518     3.13549947
     13      C     0.94899550     3.16745582     2.75352815
     14      C     0.74301893     3.57711013     1.42958092
     15      C     0.19877990     2.69434526     0.49623864
     16      H    -3.78536061     0.21507602    -1.53604696
     17      H    -4.67748866    -1.07802400    -2.39215548
     18      H    -5.04319427    -0.74181173    -0.70127200
     19      H    -2.56630805     0.90028415     1.61772686
     20      H    -2.37973393    -0.82387767     2.07274209
     21      H    -3.68130739    -0.34240738     0.96503419
     22      H    -0.13832791    -0.05154335     2.50015097
     23      H     0.79977250     1.52888296     4.15585919
     24      H     1.37234066     3.85846995     3.47940922
     25      H     1.00712655     4.58737482     1.12441100
     26      H     0.04782109     3.00984118    -0.53365973

Total System Charge              0.00000

 *** GO1_GOStep10 ***

 Energy gradients wrt nuclear displacements
 ==========================================

     Atom      Cartesian (a.u./angstrom)
                 X         Y         Z
 ----------------------------------------
     1 N     0.000871  0.004815  0.004365
     2 C     0.000050 -0.003198 -0.003798
     3 C    -0.001059  0.000061 -0.000339
     4 O     0.000254  0.001014  0.000374
     5 N    -0.000388 -0.003145 -0.003209
     6 C    -0.000484  0.001197  0.000064
     7 C     0.000813  0.000270 -0.000482
     8 C    -0.001173 -0.001689  0.001568
     9 N     0.000697  0.000680 -0.000573
    10 C    -0.000003  0.000123  0.001479
    11 C     0.001647 -0.000048 -0.001961
    12 C    -0.000310  0.000769  0.000620
    13 C     0.000476 -0.000518  0.000065
    14 C    -0.000098 -0.000205 -0.000190
    15 C    -0.000849  0.000478  0.000169
    16 H     0.000565 -0.000496  0.000196
    17 H    -0.000426 -0.000411  0.000763
    18 H     0.000080  0.001431  0.000046
    19 H     0.000015 -0.000063  0.000232
    20 H     0.000158  0.000476  0.000109
    21 H     0.000159 -0.000604  0.000495
    22 H    -0.000717 -0.000839  0.000021
    23 H    -0.000275  0.000051  0.000126
    24 H    -0.000148  0.000067  0.000023
    25 H    -0.000027  0.000071  0.000025
    26 H     0.000171 -0.000286 -0.000188
 ----------------------------------------

 dE(predicted):    -0.19339E-03, dE(actual):    -0.23357E-03, Trust radius:    0.800000, all in a.u.
 
----------------------------------------------------------------------
Geometry Convergence after Step  10       (Hartree/Angstrom,Angstrom)
----------------------------------------------------------------------
current energy                               -5.92783139 Hartree
energy change                      -0.00023357     0.00026000    T
constrained gradient max            0.00482089     0.00010000    F
constrained gradient rms            0.00123232     0.00006667    F
gradient max                        0.00482092
gradient rms                        0.00123232
cart. step max                      0.15622652     0.01000000    F
cart. step rms                      0.03592342     0.00666667    F
 

--------
Geometry
--------
Formula: C11H11N3O
Atoms
  Index Symbol   x (angstrom)   y (angstrom)   z (angstrom)
      1      N    -1.91295137    -1.44080105    -0.65944681
      2      C    -3.18917462    -1.87628372    -1.04469363
      3      C    -4.25660339    -0.82413837    -1.40575985
      4      O    -3.40540325    -3.07106845    -1.21934278
      5      N    -1.76447186    -0.34404743     0.08393929
      6      C    -2.67744242    -0.11622274     1.25076190
      7      C    -0.71767937     0.48376810    -0.13866085
      8      C    -0.07809987     0.39011294    -1.40244197
      9      N     0.47821221     0.42677587    -2.42745766
     10      C    -0.15833646     1.40480418     0.87427297
     11      C     0.05172511     0.98940574     2.20623384
     12      C     0.60588980     1.86606891     3.14069220
     13      C     0.97091622     3.16311741     2.76068788
     14      C     0.79248199     3.57441071     1.43400601
     15      C     0.23882841     2.70230456     0.49511011
     16      H    -3.87638848     0.20307397    -1.41400230
     17      H    -4.63756482    -1.07720560    -2.39994597
     18      H    -5.10294553    -0.89803826    -0.71108675
     19      H    -2.56201563     0.90077156     1.62237146
     20      H    -2.43320102    -0.84271608     2.02972771
     21      H    -3.69796448    -0.28338841     0.91053161
     22      H    -0.19045386    -0.02928842     2.49863317
     23      H     0.76767050     1.53093721     4.16298463
     24      H     1.40349583     3.84460338     3.49008702
     25      H     1.08965024     4.57558748     1.12963146
     26      H     0.10920611     3.02011653    -0.53686269

Total System Charge              0.00000

 *** GO1_GOStep11 ***

 Energy gradients wrt nuclear displacements
 ==========================================

     Atom      Cartesian (a.u./angstrom)
                 X         Y         Z
 ----------------------------------------
     1 N    -0.000084  0.001187  0.004274
     2 C     0.000543 -0.000672 -0.003983
     3 C    -0.000306  0.000232  0.000120
     4 O     0.000544  0.000554  0.000750
     5 N    -0.000015 -0.001186 -0.002139
     6 C    -0.002449  0.000095  0.000245
     7 C     0.001615 -0.002252 -0.003475
     8 C     0.001540  0.000050 -0.000342
     9 N    -0.001423  0.000104  0.001522
    10 C     0.000979  0.003420  0.001298
    11 C     0.000235 -0.000061 -0.000242
    12 C     0.000345  0.000183  0.000218
    13 C     0.000145 -0.000200 -0.000277
    14 C     0.000029  0.000543  0.000684
    15 C    -0.000510 -0.001278  0.000424
    16 H     0.000467 -0.000072  0.000512
    17 H    -0.000713 -0.000335  0.000771
    18 H    -0.000540  0.000627  0.000264
    19 H    -0.000526 -0.000344 -0.000166
    20 H     0.000661  0.000042  0.000001
    21 H    -0.000120 -0.000002 -0.000020
    22 H    -0.000337 -0.000698 -0.000430
    23 H    -0.000108  0.000224 -0.000159
    24 H    -0.000217  0.000115 -0.000068
    25 H     0.000322 -0.000080  0.000159
    26 H    -0.000080 -0.000197  0.000059
 ----------------------------------------

 dE(predicted):    -0.19699E-03, dE(actual):    -0.27868E-03, Trust radius:    0.800000, all in a.u.
 
----------------------------------------------------------------------
Geometry Convergence after Step  11       (Hartree/Angstrom,Angstrom)
----------------------------------------------------------------------
current energy                               -5.92811007 Hartree
energy change                      -0.00027868     0.00026000    F
constrained gradient max            0.00427593     0.00010000    F
constrained gradient rms            0.00112274     0.00006667    F
gradient max                        0.00427576
gradient rms                        0.00112274
cart. step max                      0.07411371     0.01000000    F
cart. step rms                      0.02165359     0.00666667    F
 

--------
Geometry
--------
Formula: C11H11N3O
Atoms
  Index Symbol   x (angstrom)   y (angstrom)   z (angstrom)
      1      N    -1.91059319    -1.43003259    -0.66416610
      2      C    -3.18849389    -1.88270682    -1.01790270
      3      C    -4.26378601    -0.85035417    -1.40742073
      4      O    -3.39830894    -3.08324773    -1.16405823
      5      N    -1.76679224    -0.33222816     0.08147365
      6      C    -2.68382667    -0.10996556     1.24560783
      7      C    -0.72646021     0.50258542    -0.14282843
      8      C    -0.09579594     0.42090266    -1.41209561
      9      N     0.45809538     0.46359041    -2.43877039
     10      C    -0.15846875     1.41503665     0.87293369
     11      C     0.04532934     0.99542988     2.20532588
     12      C     0.60489728     1.86538659     3.14211085
     13      C     0.98861720     3.15769879     2.76361169
     14      C     0.81765211     3.57229403     1.43717120
     15      C     0.25440874     2.70823051     0.49632653
     16      H    -3.91912363     0.18893259    -1.37949729
     17      H    -4.58549538    -1.09141709    -2.42585860
     18      H    -5.13940832    -0.97215197    -0.75743396
     19      H    -2.54055515     0.89173223     1.64714770
     20      H    -2.47199962    -0.86780703     2.00402740
     21      H    -3.70549601    -0.23100348     0.88821600
     22      H    -0.21098744    -0.01955381     2.49712319
     23      H     0.75969831     1.52777614     4.16473277
     24      H     1.42882592     3.83271746     3.49452185
     25      H     1.12475315     4.57108379     1.13491395
     26      H     0.13069397     3.02973126    -0.53524214

Total System Charge              0.00000

 *** GO1_GOStep12 ***

 Energy gradients wrt nuclear displacements
 ==========================================

     Atom      Cartesian (a.u./angstrom)
                 X         Y         Z
 ----------------------------------------
     1 N    -0.000805 -0.001720  0.001089
     2 C     0.000693  0.001978  0.000623
     3 C     0.000988  0.000615 -0.000452
     4 O     0.000317 -0.000614 -0.000731
     5 N     0.000657  0.000930 -0.001451
     6 C    -0.002648 -0.000285  0.000584
     7 C     0.000412 -0.003094 -0.003132
     8 C    -0.000259  0.000691  0.001066
     9 N    -0.000015 -0.000050 -0.000110
    10 C     0.001254  0.003979  0.001232
    11 C     0.001241 -0.000584  0.000530
    12 C    -0.000722 -0.000007  0.000104
    13 C     0.000411 -0.000181 -0.000548
    14 C     0.000402  0.000447  0.000778
    15 C    -0.000804 -0.001734  0.000286
    16 H    -0.000020  0.000161  0.000141
    17 H    -0.000580 -0.000221  0.000421
    18 H    -0.000393 -0.000355  0.000474
    19 H    -0.000451 -0.000205 -0.000277
    20 H     0.000674 -0.000174 -0.000040
    21 H     0.000129  0.000340 -0.000323
    22 H    -0.000408 -0.000140 -0.000396
    23 H    -0.000091  0.000228 -0.000112
    24 H    -0.000068  0.000076 -0.000033
    25 H     0.000016  0.000005  0.000241
    26 H     0.000069 -0.000087  0.000037
 ----------------------------------------

 dE(predicted):    -0.11145E-03, dE(actual):    -0.13108E-03, Trust radius:    0.800000, all in a.u.
 
----------------------------------------------------------------------
Geometry Convergence after Step  12       (Hartree/Angstrom,Angstrom)
----------------------------------------------------------------------
current energy                               -5.92824115 Hartree
energy change                      -0.00013108     0.00026000    T
constrained gradient max            0.00398856     0.00010000    F
constrained gradient rms            0.00097176     0.00006667    F
gradient max                        0.00398852
gradient rms                        0.00097176
cart. step max                      0.10252980     0.01000000    F
cart. step rms                      0.02479391     0.00666667    F
 

--------
Geometry
--------
Formula: C11H11N3O
Atoms
  Index Symbol   x (angstrom)   y (angstrom)   z (angstrom)
      1      N    -1.91617931    -1.42038665    -0.65673395
      2      C    -3.19640219    -1.88874399    -0.97980118
      3      C    -4.25824864    -0.87235527    -1.43857230
      4      O    -3.41430120    -3.09388586    -1.06152843
      5      N    -1.77394270    -0.32189477     0.08869099
      6      C    -2.69082862    -0.10114021     1.25201342
      7      C    -0.74228055     0.52130726    -0.14173369
      8      C    -0.12063686     0.44582572    -1.41645106
      9      N     0.42599602     0.49229302    -2.44683225
     10      C    -0.16316132     1.42350237     0.87459084
     11      C     0.04860682     0.99610993     2.20352370
     12      C     0.62602679     1.85570200     3.13873476
     13      C     1.00610347     3.15100514     2.76642678
     14      C     0.82316102     3.57494897     1.44436875
     15      C     0.25063224     2.71838687     0.50256137
     16      H    -3.93094249     0.17222499    -1.40536685
     17      H    -4.51348731    -1.12568591    -2.47337409
     18      H    -5.16722469    -1.00419571    -0.83903621
     19      H    -2.51748341     0.88438543     1.68034699
     20      H    -2.51212996    -0.88622112     1.99087711
     21      H    -3.71363228    -0.17701403     0.88293497
     22      H    -0.20414619    -0.02074024     2.49125339
     23      H     0.79362043     1.50881210     4.15639960
     24      H     1.45803418     3.81844477     3.49718872
     25      H     1.13149957     4.57424730     1.14504123
     26      H     0.11872720     3.04772790    -0.52555259

Total System Charge              0.00000

 *** GO1_GOStep13 ***

 Energy gradients wrt nuclear displacements
 ==========================================

     Atom      Cartesian (a.u./angstrom)
                 X         Y         Z
 ----------------------------------------
     1 N    -0.001696 -0.003469 -0.002041
     2 C     0.001566  0.003120  0.003126
     3 C     0.001443  0.000632 -0.000724
     4 O    -0.000378 -0.001354 -0.001401
     5 N     0.001239  0.002847 -0.000040
     6 C    -0.001583 -0.000381  0.000974
     7 C    -0.001453 -0.002201 -0.001393
     8 C    -0.000177  0.000615  0.000542
     9 N     0.000076 -0.000081 -0.000090
    10 C     0.001667  0.001900  0.000584
    11 C    -0.000665  0.000187  0.001407
    12 C     0.000408 -0.000933 -0.000591
    13 C    -0.000462  0.000361 -0.000289
    14 C    -0.000024  0.000323  0.000608
    15 C    -0.000308 -0.001226 -0.000173
    16 H    -0.000565  0.000116 -0.000637
    17 H    -0.000223 -0.000093 -0.000109
    18 H     0.000040 -0.000840  0.000699
    19 H    -0.000082  0.000070 -0.000303
    20 H     0.000319 -0.000139 -0.000038
    21 H     0.000339  0.000372 -0.000086
    22 H     0.000138  0.000138 -0.000271
    23 H     0.000087  0.000024  0.000067
    24 H     0.000086 -0.000027  0.000050
    25 H     0.000203 -0.000112  0.000080
    26 H     0.000003  0.000153  0.000048
 ----------------------------------------

 dE(predicted):    -0.93695E-04, dE(actual):    -0.33376E-04, Trust radius:    0.800000, all in a.u.
 
----------------------------------------------------------------------
Geometry Convergence after Step  13       (Hartree/Angstrom,Angstrom)
----------------------------------------------------------------------
current energy                               -5.92827453 Hartree
energy change                      -0.00003338     0.00026000    T
constrained gradient max            0.00348961     0.00010000    F
constrained gradient rms            0.00105367     0.00006667    F
gradient max                        0.00348964
gradient rms                        0.00105367
cart. step max                      0.05832008     0.01000000    F
cart. step rms                      0.01640063     0.00666667    F
 

--------
Geometry
--------
Formula: C11H11N3O
Atoms
  Index Symbol   x (angstrom)   y (angstrom)   z (angstrom)
      1      N    -1.92209376    -1.42137984    -0.65129554
      2      C    -3.20837757    -1.88762051    -0.95990538
      3      C    -4.25186050    -0.86782447    -1.45166677
      4      O    -3.44239780    -3.09071877    -1.00320835
      5      N    -1.77057944    -0.32718880     0.09487521
      6      C    -2.68411072    -0.10092868     1.25910961
      7      C    -0.74100269     0.51751879    -0.14159588
      8      C    -0.12365033     0.44035786    -1.41836061
      9      N     0.42009976     0.48650984    -2.45042087
     10      C    -0.16096256     1.41976663     0.87209262
     11      C     0.06513461     0.98844023     2.19697667
     12      C     0.63363147     1.85202355     3.13438734
     13      C     1.00342482     3.15074259     2.76386383
     14      C     0.81012397     3.57753661     1.44386565
     15      C     0.23781362     2.72049660     0.50264777
     16      H    -3.92612626     0.17612059    -1.39371479
     17      H    -4.45832139    -1.10812143    -2.50064452
     18      H    -5.18634811    -1.00684000    -0.89555249
     19      H    -2.48283897     0.87025675     1.70699926
     20      H    -2.53327704    -0.90515482     1.98320397
     21      H    -3.70786030    -0.13906491     0.88483146
     22      H    -0.17950198    -0.03110623     2.48310562
     23      H     0.80675592     1.50356303     4.15062751
     24      H     1.45058114     3.82042455     3.49547814
     25      H     1.10381475     4.58211683     1.14743223
     26      H     0.09530933     3.05273402    -0.52316168

Total System Charge              0.00000

 *** GO1_GOStep14 ***

 Energy gradients wrt nuclear displacements
 ==========================================

     Atom      Cartesian (a.u./angstrom)
                 X         Y         Z
 ----------------------------------------
     1 N    -0.001594 -0.002298 -0.001813
     2 C     0.001742  0.001668  0.001262
     3 C     0.000748  0.000557 -0.000539
     4 O    -0.000457 -0.000345 -0.000377
     5 N     0.001226  0.001567  0.000563
     6 C    -0.000251 -0.000113  0.000838
     7 C    -0.001460 -0.000890 -0.000110
     8 C    -0.000139  0.000193  0.000513
     9 N     0.000244  0.000038 -0.000356
    10 C     0.000057  0.000653  0.000286
    11 C     0.000665 -0.000405  0.000175
    12 C    -0.000876 -0.000265  0.000015
    13 C     0.000406  0.000099 -0.000276
    14 C     0.000450 -0.000096  0.000113
    15 C    -0.000462 -0.000292 -0.000196
    16 H    -0.000426  0.000042 -0.000431
    17 H     0.000026 -0.000130  0.000041
    18 H    -0.000017 -0.000529  0.000341
    19 H     0.000327  0.000148 -0.000152
    20 H    -0.000111  0.000034 -0.000095
    21 H     0.000135  0.000300 -0.000083
    22 H    -0.000116  0.000059 -0.000070
    23 H     0.000035 -0.000066  0.000117
    24 H    -0.000023 -0.000046  0.000127
    25 H    -0.000227  0.000014  0.000124
    26 H     0.000097  0.000103 -0.000017
 ----------------------------------------

 dE(predicted):    -0.45162E-04, dE(actual):     0.15875E-04, Trust radius:    0.047504, all in a.u.
 
----------------------------------------------------------------------
Geometry Convergence after Step  14       (Hartree/Angstrom,Angstrom)
----------------------------------------------------------------------
current energy                               -5.92825865 Hartree
energy change                       0.00001587     0.00026000    T
constrained gradient max            0.00231672     0.00010000    F
constrained gradient rms            0.00064667     0.00006667    F
gradient max                        0.00231674
gradient rms                        0.00064667
cart. step max                      0.02845161     0.01000000    F
cart. step rms                      0.00859538     0.00666667    F
 

--------
Geometry
--------
Formula: C11H11N3O
Atoms
  Index Symbol   x (angstrom)   y (angstrom)   z (angstrom)
      1      N    -1.92195228    -1.42501037    -0.65276815
      2      C    -3.20913071    -1.88575781    -0.97130545
      3      C    -4.24868658    -0.85458621    -1.44826449
      4      O    -3.44528475    -3.08748348    -1.02933427
      5      N    -1.76971495    -0.33447829     0.09742791
      6      C    -2.68051000    -0.11597106     1.26468673
      7      C    -0.74064041     0.51195547    -0.13848053
      8      C    -0.12385998     0.43350264    -1.41573915
      9      N     0.42001830     0.47890790    -2.44771904
     10      C    -0.16260448     1.41705349     0.87306622
     11      C     0.05984338     0.99258713     2.20070805
     12      C     0.62935086     1.85958405     3.13466842
     13      C     0.99824151     3.15710482     2.75975213
     14      C     0.80740262     3.57789308     1.43738145
     15      C     0.23835622     2.71614839     0.49877397
     16      H    -3.91201733     0.18530005    -1.37908219
     17      H    -4.46065959    -1.08093647    -2.49916939
     18      H    -5.18282703    -0.98864742    -0.89078048
     19      H    -2.48899629     0.85774935     1.71142789
     20      H    -2.51790555    -0.91741980     1.98933147
     21      H    -3.70541270    -0.16751651     0.89522760
     22      H    -0.18528808    -0.02544107     2.49182974
     23      H     0.80087055     1.51526394     4.15253212
     24      H     1.44554269     3.82947797     3.48874596
     25      H     1.10440333     4.58007021     1.13606746
     26      H     0.09884123     3.04330999    -0.52901400

Total System Charge              0.00000

 *** GO1_GOStep15 ***

 Energy gradients wrt nuclear displacements
 ==========================================

     Atom      Cartesian (a.u./angstrom)
                 X         Y         Z
 ----------------------------------------
     1 N    -0.000722 -0.000742 -0.000545
     2 C     0.000868  0.000639 -0.000361
     3 C    -0.000011  0.000079  0.000015
     4 O    -0.000179 -0.000194  0.000025
     5 N     0.000570  0.000364  0.000481
     6 C     0.000066 -0.000147  0.000445
     7 C    -0.000610  0.000030 -0.000082
     8 C    -0.000107 -0.000102  0.000344
     9 N     0.000231  0.000051 -0.000328
    10 C    -0.000038  0.000140 -0.000083
    11 C     0.000046 -0.000164  0.000036
    12 C     0.000024 -0.000242  0.000014
    13 C    -0.000055  0.000160  0.000011
    14 C    -0.000027  0.000078  0.000129
    15 C    -0.000064 -0.000095 -0.000109
    16 H    -0.000039  0.000038 -0.000052
    17 H     0.000053 -0.000068  0.000036
    18 H    -0.000015  0.000067  0.000066
    19 H     0.000190  0.000020  0.000007
    20 H    -0.000175  0.000070 -0.000138
    21 H     0.000030  0.000137 -0.000109
    22 H    -0.000130  0.000014 -0.000017
    23 H    -0.000028 -0.000027  0.000066
    24 H     0.000049 -0.000101  0.000065
    25 H     0.000035 -0.000047  0.000033
    26 H     0.000036  0.000042  0.000051
 ----------------------------------------

 dE(predicted):    -0.16843E-04, dE(actual):    -0.39529E-04, Trust radius:    0.095008, all in a.u.
 
----------------------------------------------------------------------
Geometry Convergence after Step  15       (Hartree/Angstrom,Angstrom)
----------------------------------------------------------------------
current energy                               -5.92829818 Hartree
energy change                      -0.00003953     0.00026000    T
constrained gradient max            0.00087466     0.00010000    F
constrained gradient rms            0.00024484     0.00006667    F
gradient max                        0.00087471
gradient rms                        0.00024484
cart. step max                      0.01115905     0.01000000    F
cart. step rms                      0.00320138     0.00666667    T
 

--------
Geometry
--------
Formula: C11H11N3O
Atoms
  Index Symbol   x (angstrom)   y (angstrom)   z (angstrom)
      1      N    -1.92208021    -1.42415605    -0.64986465
      2      C    -3.20908663    -1.88798968    -0.96836560
      3      C    -4.24889302    -0.85832021    -1.44868824
      4      O    -3.44235445    -3.09007091    -1.02563748
      5      N    -1.77170815    -0.33146932     0.09657274
      6      C    -2.68436554    -0.11102093     1.26186852
      7      C    -0.74138750     0.51407538    -0.13889019
      8      C    -0.12457227     0.43492516    -1.41607556
      9      N     0.41847797     0.48012106    -2.44830174
     10      C    -0.16270580     1.41782568     0.87333625
     11      C     0.06056206     0.99194192     2.20030703
     12      C     0.63203210     1.85740256     3.13460075
     13      C     1.00085050     3.15517312     2.76100686
     14      C     0.80869182     3.57769426     1.43933664
     15      C     0.23836521     2.71737069     0.50036335
     16      H    -3.91247109     0.18158614    -1.37825463
     17      H    -4.45772549    -1.08435359    -2.50028647
     18      H    -5.18477174    -0.99212407    -0.89424964
     19      H    -2.50015535     0.86675352     1.70274068
     20      H    -2.51616991    -0.90658696     1.99182302
     21      H    -3.70883523    -0.17276827     0.89283320
     22      H    -0.18214019    -0.02715244     2.48990185
     23      H     0.80611250     1.51102778     4.15128940
     24      H     1.44895188     3.82663890     3.49031837
     25      H     1.10519521     4.58035381     1.13912295
     26      H     0.09756333     3.04578246    -0.52683741

Total System Charge              0.00000

 *** GO1_GOStep16 ***

 Energy gradients wrt nuclear displacements
 ==========================================

     Atom      Cartesian (a.u./angstrom)
                 X         Y         Z
 ----------------------------------------
     1 N    -0.000123  0.000103  0.000227
     2 C     0.000184 -0.000077  0.000126
     3 C    -0.000180 -0.000047 -0.000091
     4 O     0.000019 -0.000019 -0.000203
     5 N     0.000251 -0.000024 -0.000176
     6 C    -0.000131  0.000058 -0.000009
     7 C    -0.000188  0.000261  0.000061
     8 C     0.000185 -0.000071 -0.000378
     9 N    -0.000146  0.000039  0.000306
    10 C     0.000134 -0.000217 -0.000077
    11 C    -0.000229  0.000133  0.000108
    12 C     0.000025 -0.000079  0.000037
    13 C    -0.000029  0.000028  0.000062
    14 C     0.000032 -0.000040  0.000054
    15 C     0.000056  0.000031 -0.000014
    16 H     0.000101  0.000038  0.000062
    17 H    -0.000038  0.000023  0.000045
    18 H     0.000008  0.000209 -0.000051
    19 H    -0.000021 -0.000134  0.000047
    20 H    -0.000069 -0.000019 -0.000162
    21 H    -0.000030  0.000041 -0.000098
    22 H     0.000126 -0.000071 -0.000030
    23 H     0.000074 -0.000071 -0.000013
    24 H    -0.000007 -0.000085  0.000047
    25 H    -0.000005 -0.000029  0.000046
    26 H     0.000001  0.000018  0.000074
 ----------------------------------------

 dE(predicted):    -0.46632E-05, dE(actual):    -0.65308E-05, Trust radius:    0.095008, all in a.u.
 
----------------------------------------------------------------------
Geometry Convergence after Step  16       (Hartree/Angstrom,Angstrom)
----------------------------------------------------------------------
current energy                               -5.92830471 Hartree
energy change                      -0.00000653     0.00026000    T
constrained gradient max            0.00037678     0.00010000    F
constrained gradient rms            0.00011600     0.00006667    F
gradient max                        0.00037679
gradient rms                        0.00011600
cart. step max                      0.00873928     0.01000000    T
cart. step rms                      0.00237131     0.00666667    T
 

--------
Geometry
--------
Formula: C11H11N3O
Atoms
  Index Symbol   x (angstrom)   y (angstrom)   z (angstrom)
      1      N    -1.92223915    -1.42405903    -0.65149656
      2      C    -3.20994060    -1.88725727    -0.96945221
      3      C    -4.24893243    -0.85657862    -1.44925798
      4      O    -3.44401133    -3.08910460    -1.02625738
      5      N    -1.77138612    -0.33267585     0.09667757
      6      C    -2.68246085    -0.11494826     1.26351348
      7      C    -0.74117912     0.51339633    -0.13829521
      8      C    -0.12640139     0.43687155    -1.41662842
      9      N     0.41473490     0.48405242    -2.44985439
     10      C    -0.16269428     1.41729249     0.87378123
     11      C     0.05899615     0.99299969     2.20154339
     12      C     0.62976892     1.85943861     3.13539427
     13      C     1.00090262     3.15606517     2.76030462
     14      C     0.81092961     3.57681474     1.43774608
     15      C     0.24031196     2.71594145     0.49953602
     16      H    -3.91276360     0.18320384    -1.37596207
     17      H    -4.45590818    -1.07992890    -2.50183677
     18      H    -5.18568579    -0.99191007    -0.89670136
     19      H    -2.50161178     0.86407340     1.70311200
     20      H    -2.50935013    -0.90906193     1.99400827
     21      H    -3.70752956    -0.18150755     0.89688511
     22      H    -0.18607727    -0.02499238     2.49286547
     23      H     0.80086466     1.51474809     4.15315018
     24      H     1.44852816     3.82828574     3.48921895
     25      H     1.10925736     4.57858214     1.13634294
     26      H     0.10125724     3.04291880    -0.52836723

Total System Charge              0.00000

 *** GO1_GOStep17 ***

 Energy gradients wrt nuclear displacements
 ==========================================

     Atom      Cartesian (a.u./angstrom)
                 X         Y         Z
 ----------------------------------------
     1 N     0.000078  0.000149  0.000270
     2 C    -0.000075 -0.000212 -0.000027
     3 C    -0.000166 -0.000037 -0.000077
     4 O     0.000083  0.000077 -0.000108
     5 N    -0.000015 -0.000109 -0.000077
     6 C    -0.000002  0.000042 -0.000120
     7 C     0.000060  0.000199  0.000087
     8 C    -0.000002  0.000016 -0.000103
     9 N    -0.000004  0.000042 -0.000007
    10 C     0.000018 -0.000118 -0.000077
    11 C     0.000002 -0.000001  0.000028
    12 C     0.000060  0.000001  0.000058
    13 C     0.000015 -0.000061  0.000064
    14 C     0.000031 -0.000046  0.000022
    15 C    -0.000028  0.000055  0.000068
    16 H     0.000087  0.000043  0.000013
    17 H    -0.000043  0.000060  0.000024
    18 H     0.000024  0.000194 -0.000034
    19 H    -0.000049 -0.000116  0.000063
    20 H    -0.000019 -0.000072 -0.000123
    21 H    -0.000067  0.000050 -0.000069
    22 H     0.000025 -0.000023 -0.000000
    23 H    -0.000021 -0.000040 -0.000012
    24 H    -0.000023 -0.000061  0.000042
    25 H     0.000012 -0.000022  0.000047
    26 H     0.000020 -0.000009  0.000048
 ----------------------------------------

 dE(predicted):    -0.16905E-05, dE(actual):    -0.60466E-05, Trust radius:    0.095008, all in a.u.
 
----------------------------------------------------------------------
Geometry Convergence after Step  17       (Hartree/Angstrom,Angstrom)
----------------------------------------------------------------------
current energy                               -5.92831076 Hartree
energy change                      -0.00000605     0.00026000    T
constrained gradient max            0.00030038     0.00010000    F
constrained gradient rms            0.00007467     0.00006667    F
gradient max                        0.00030037
gradient rms                        0.00007467
cart. step max                      0.01289726     0.01000000    F
cart. step rms                      0.00366536     0.00666667    T
 

--------
Geometry
--------
Formula: C11H11N3O
Atoms
  Index Symbol   x (angstrom)   y (angstrom)   z (angstrom)
      1      N    -1.92280053    -1.42172493    -0.65422280
      2      C    -3.21115491    -1.88704473    -0.96861706
      3      C    -4.25137617    -0.85817086    -1.44900786
      4      O    -3.44458926    -3.08905311    -1.02126107
      5      N    -1.77164212    -0.33158634     0.09527328
      6      C    -2.68087053    -0.11513429     1.26361727
      7      C    -0.74104829     0.51460101    -0.13911306
      8      C    -0.12680615     0.43942548    -1.41761042
      9      N     0.41402516     0.48735491    -2.45103804
     10      C    -0.16262088     1.41783582     0.87349097
     11      C     0.05732833     0.99362299     2.20152404
     12      C     0.62800811     1.85973918     3.13576029
     13      C     1.00188886     3.15548184     2.76049930
     14      C     0.81392095     3.57604336     1.43757990
     15      C     0.24325824     2.71557426     0.49908970
     16      H    -3.92251190     0.18305000    -1.36456237
     17      H    -4.44743736    -1.07352734    -2.50548555
     18      H    -5.19201377    -1.00480733    -0.90604898
     19      H    -2.50460845     0.86673714     1.69886159
     20      H    -2.50116257    -0.90526464     1.99702576
     21      H    -3.70669487    -0.18904980     0.90035140
     22      H    -0.19080910    -0.02344644     2.49344025
     23      H     0.79645500     1.51541212     4.15409563
     24      H     1.44999084     3.82735860     3.48947652
     25      H     1.11471992     4.57704985     1.13605085
     26      H     0.10593147     3.04218327    -0.52919954

Total System Charge              0.00000

 *** GO1_GOStep18 ***

 Energy gradients wrt nuclear displacements
 ==========================================

     Atom      Cartesian (a.u./angstrom)
                 X         Y         Z
 ----------------------------------------
     1 N     0.000423  0.000468  0.000342
     2 C    -0.000372 -0.000563 -0.000391
     3 C    -0.000013  0.000163 -0.000003
     4 O     0.000046  0.000198  0.000057
     5 N    -0.000395 -0.000320  0.000050
     6 C     0.000242  0.000071 -0.000235
     7 C     0.000326  0.000170 -0.000026
     8 C    -0.000156  0.000057  0.000220
     9 N     0.000110  0.000047 -0.000217
    10 C    -0.000163  0.000036  0.000023
    11 C     0.000246 -0.000147 -0.000123
    12 C     0.000064  0.000089  0.000032
    13 C     0.000026 -0.000164  0.000052
    14 C    -0.000148  0.000009  0.000034
    15 C     0.000100 -0.000032  0.000117
    16 H     0.000039  0.000034 -0.000023
    17 H    -0.000066  0.000065  0.000022
    18 H    -0.000001  0.000069 -0.000001
    19 H    -0.000068 -0.000071  0.000044
    20 H     0.000039 -0.000153 -0.000002
    21 H    -0.000154  0.000095 -0.000057
    22 H    -0.000111 -0.000019  0.000015
    23 H    -0.000097 -0.000038  0.000002
    24 H     0.000023 -0.000031  0.000025
    25 H     0.000059 -0.000013  0.000049
    26 H     0.000003 -0.000019 -0.000004
 ----------------------------------------

 dE(predicted):    -0.25557E-05, dE(actual):    -0.47660E-05, Trust radius:    0.095008, all in a.u.
 
----------------------------------------------------------------------
Geometry Convergence after Step  18       (Hartree/Angstrom,Angstrom)
----------------------------------------------------------------------
current energy                               -5.92831552 Hartree
energy change                      -0.00000477     0.00026000    T
constrained gradient max            0.00059142     0.00010000    F
constrained gradient rms            0.00016570     0.00006667    F
gradient max                        0.00059142
gradient rms                        0.00016570
cart. step max                      0.01637348     0.01000000    F
cart. step rms                      0.00454316     0.00666667    T
 

--------
Geometry
--------
Formula: C11H11N3O
Atoms
  Index Symbol   x (angstrom)   y (angstrom)   z (angstrom)
      1      N    -1.92390954    -1.42043650    -0.65492999
      2      C    -3.21314883    -1.88672110    -0.96562549
      3      C    -4.25231090    -0.85940247    -1.45069268
      4      O    -3.44717815    -3.08874872    -1.01285273
      5      N    -1.77221631    -0.33102498     0.09520737
      6      C    -2.68028921    -0.11457462     1.26439709
      7      C    -0.74177330     0.51551492    -0.13940113
      8      C    -0.12841963     0.44130544    -1.41826682
      9      N     0.41136525     0.48969844    -2.45219714
     10      C    -0.16307991     1.41826307     0.87342987
     11      C     0.05622069     0.99393447     2.20152655
     12      C     0.62825626     1.85923735     3.13569780
     13      C     1.00384339     3.15447477     2.76046300
     14      C     0.81633168     3.57528721     1.43753273
     15      C     0.24378011     2.71586033     0.49925593
     16      H    -3.93149918     0.18308992    -1.35270558
     17      H    -4.43171526    -1.06568536    -2.51212931
     18      H    -5.19932274    -1.01793508    -0.92242246
     19      H    -2.51052347     0.87171707     1.69240186
     20      H    -2.49276388    -0.89805299     2.00304452
     21      H    -3.70645790    -0.19909741     0.90442616
     22      H    -0.19235481    -0.02300912     2.49341645
     23      H     0.79701283     1.51431842     4.15381170
     24      H     1.45287991     3.82583021     3.48937707
     25      H     1.11799933     4.57609626     1.13619598
     26      H     0.10665357     3.04272047    -0.52899077

Total System Charge              0.00000

 *** GO1_GOStep19 ***

 Energy gradients wrt nuclear displacements
 ==========================================

     Atom      Cartesian (a.u./angstrom)
                 X         Y         Z
 ----------------------------------------
     1 N     0.000602  0.000521  0.000166
     2 C    -0.000640 -0.000484 -0.000348
     3 C     0.000231  0.000265 -0.000093
     4 O     0.000074  0.000253  0.000108
     5 N    -0.000516 -0.000485  0.000221
     6 C     0.000297  0.000078 -0.000300
     7 C     0.000391  0.000131 -0.000110
     8 C    -0.000121  0.000099  0.000206
     9 N     0.000049  0.000030 -0.000144
    10 C    -0.000066 -0.000050 -0.000009
    11 C     0.000082 -0.000110 -0.000087
    12 C     0.000031  0.000114 -0.000001
    13 C    -0.000008 -0.000189  0.000076
    14 C     0.000072 -0.000081 -0.000061
    15 C    -0.000060  0.000104  0.000181
    16 H    -0.000019  0.000013 -0.000055
    17 H    -0.000059  0.000064  0.000009
    18 H    -0.000098 -0.000092  0.000050
    19 H    -0.000066 -0.000015 -0.000007
    20 H     0.000065 -0.000161  0.000113
    21 H    -0.000175  0.000112 -0.000029
    22 H    -0.000076 -0.000020  0.000014
    23 H    -0.000033 -0.000085  0.000010
    24 H     0.000007  0.000003  0.000037
    25 H     0.000031  0.000008  0.000072
    26 H     0.000006 -0.000022 -0.000019
 ----------------------------------------

 dE(predicted):    -0.22601E-05, dE(actual):    -0.40901E-05, Trust radius:    0.095008, all in a.u.
 
----------------------------------------------------------------------
Geometry Convergence after Step  19       (Hartree/Angstrom,Angstrom)
----------------------------------------------------------------------
current energy                               -5.92831961 Hartree
energy change                      -0.00000409     0.00026000    T
constrained gradient max            0.00062990     0.00010000    F
constrained gradient rms            0.00019289     0.00006667    F
gradient max                        0.00062991
gradient rms                        0.00019289
cart. step max                      0.00484047     0.01000000    T
cart. step rms                      0.00181952     0.00666667    T
 

--------
Geometry
--------
Formula: C11H11N3O
Atoms
  Index Symbol   x (angstrom)   y (angstrom)   z (angstrom)
      1      N    -1.92440147    -1.42198469    -0.65442862
      2      C    -3.21391082    -1.88583522    -0.96639845
      3      C    -4.25157691    -0.85632467    -1.44997598
      4      O    -3.44948019    -3.08754233    -1.01674420
      5      N    -1.77173215    -0.33234499     0.09545038
      6      C    -2.67928276    -0.11533636     1.26511086
      7      C    -0.74101383     0.51354073    -0.13932557
[...]
 ----------------------------------------
     1 N    -0.000001  0.000020 -0.000051
     2 C    -0.000075  0.000088 -0.000049
     3 C     0.000073  0.000014 -0.000002
     4 O    -0.000021  0.000015 -0.000053
     5 N    -0.000009 -0.000003 -0.000010
     6 C    -0.000014 -0.000050 -0.000001
     7 C     0.000017  0.000038 -0.000025
     8 C    -0.000018  0.000020  0.000023
     9 N     0.000009  0.000026 -0.000012
    10 C     0.000006 -0.000021  0.000007
    11 C    -0.000029 -0.000010  0.000032
    12 C     0.000006 -0.000063  0.000008
    13 C     0.000033 -0.000035  0.000033
    14 C    -0.000028 -0.000008  0.000048
    15 C     0.000052 -0.000019  0.000008
    16 H    -0.000006  0.000026 -0.000007
    17 H    -0.000006  0.000050 -0.000029
    18 H    -0.000014  0.000034 -0.000014
    19 H     0.000003  0.000002 -0.000000
    20 H    -0.000022  0.000012 -0.000035
    21 H     0.000005  0.000006 -0.000017
    22 H     0.000004 -0.000029 -0.000011
    23 H     0.000003 -0.000057  0.000018
    24 H     0.000011 -0.000052  0.000044
    25 H     0.000017 -0.000020  0.000055
    26 H     0.000006  0.000015  0.000040
 ----------------------------------------



 =======================================================================
 Electrostatic potential at the Nuclei due to electrons and other nuclei
 =======================================================================
  
         Atom                  Potential
         ----                  ---------
     1)   N                  18.39348406
     2)   C                  14.68679882
     3)   C                  14.77368720
     4)   O                  22.42613899
     5)   N                  18.26257610
     6)   C                  14.71016373
     7)   C                  14.68617216
     8)   C                  14.75220313
     9)   N                  18.42755924
    10)   C                  14.73318534
    11)   C                  14.75237349
    12)   C                  14.75703987
    13)   C                  14.75805250
    14)   C                  14.75842340
    15)   C                  14.75584873
    16)   H                   1.09355321
    17)   H                   1.09097831
    18)   H                   1.09106428
    19)   H                   1.05480628
    20)   H                   1.05534859
    21)   H                   1.05271960
    22)   H                   1.07198810
    23)   H                   1.07890861
    24)   H                   1.08060991
    25)   H                   1.08123190
    26)   H                   1.07815030
 Mulliken charges used for AMS results%charges...


    =====================
     CALCULATION RESULTS
    =====================

Energy (hartree)            -5.92832763

Gradients (hartree/bohr)
  Index   Atom            d/dx            d/dy            d/dz
      1      N   -0.0000005721    0.0000107981   -0.0000267262
      2      C   -0.0000397310    0.0000465314   -0.0000261910
      3      C    0.0000384411    0.0000074335   -0.0000009247
      4      O   -0.0000113241    0.0000080522   -0.0000280784
      5      N   -0.0000048263   -0.0000013844   -0.0000055396
      6      C   -0.0000075886   -0.0000262042   -0.0000005384
      7      C    0.0000091902    0.0000200660   -0.0000130438
      8      C   -0.0000094952    0.0000105900    0.0000121757
      9      N    0.0000045567    0.0000135403   -0.0000063897
     10      C    0.0000032466   -0.0000108781    0.0000034612
     11      C   -0.0000151975   -0.0000051617    0.0000170804
     12      C    0.0000030280   -0.0000333141    0.0000044277
     13      C    0.0000177211   -0.0000184627    0.0000174908
     14      C   -0.0000148198   -0.0000043053    0.0000252269
     15      C    0.0000272863   -0.0000099359    0.0000040525
     16      H   -0.0000029138    0.0000137906   -0.0000035048
     17      H   -0.0000033186    0.0000265276   -0.0000153058
     18      H   -0.0000074047    0.0000180777   -0.0000074287
     19      H    0.0000013362    0.0000009348   -0.0000001030
     20      H   -0.0000118289    0.0000063872   -0.0000183870
     21      H    0.0000027037    0.0000031624   -0.0000089174
     22      H    0.0000021774   -0.0000155731   -0.0000060815
     23      H    0.0000014059   -0.0000302848    0.0000097320
     24      H    0.0000059409   -0.0000277424    0.0000231357
     25      H    0.0000088772   -0.0000107506    0.0000292426
     26      H    0.0000031092    0.0000081055    0.0000211348


--------------
Atomic charges
--------------
  Index   Atom    Charge
      1      N   -0.2429
      2      C    0.4448
      3      C    0.5905
      4      O   -0.5122
      5      N   -0.0862
      6      C    0.8065
      7      C    0.1421
      8      C    0.1215
      9      N   -0.2456
     10      C   -0.0872
     11      C    0.2324
     12      C    0.2310
     13      C    0.2214
     14      C    0.2201
     15      C    0.2535
     16      H   -0.2166
     17      H   -0.1844
     18      H   -0.1602
     19      H   -0.1935
     20      H   -0.1641
     21      H   -0.1765
     22      H   -0.1903
     23      H   -0.2143
     24      H   -0.2020
     25      H   -0.2087
     26      H   -0.1790


Dipole moment vector    (Debye):    -1.34814226    5.68461350    6.03283485
              magnitude (Debye):     8.39806016


-----------------------
Molecular orbitals info
-----------------------
n orbitals:              511
n spin:                    1

Note: only printing virtual orbitals with
      energy smaller than HOMO + 100. eV

HOMO (eV):              -5.7210
LUMO (eV):              -3.6777
HOMO-LUMO gap (eV):      2.0432

   Index   Energy (eV)    Occupation
     322       94.2561         0.000       
     321       94.2239         0.000       
     320       93.6832         0.000       
     319       93.3997         0.000       
     318       93.1739         0.000       
     317       92.8705         0.000       
     316       92.1233         0.000       
     315       91.9577         0.000       
     314       91.5657         0.000       
     313       91.2306         0.000       
     312       91.0412         0.000       
     311       90.6311         0.000       
     310       90.1155         0.000       
     309       89.8692         0.000       
     308       89.5374         0.000       
     307       88.6801         0.000       
     306       88.2499         0.000       
     305       87.0014         0.000       
     304       86.5295         0.000       
     303       85.8610         0.000       
     302       85.5608         0.000       
     301       84.7522         0.000       
     300       84.4458         0.000       
     299       83.8698         0.000       
     298       83.6767         0.000       
     297       82.7191         0.000       
     296       82.2850         0.000       
     295       82.1421         0.000       
     294       81.5219         0.000       
     293       80.8431         0.000       
     292       80.6777         0.000       
     291       80.0367         0.000       
     290       79.9296         0.000       
     289       79.7281         0.000       
     288       79.4188         0.000       
     287       79.2058         0.000       
     286       78.7706         0.000       
     285       78.4784         0.000       
     284       78.2977         0.000       
     283       77.9035         0.000       
     282       77.6040         0.000       
     281       76.9964         0.000       
     280       76.4377         0.000       
     279       75.6961         0.000       
     278       75.5975         0.000       
     277       75.1834         0.000       
     276       75.0502         0.000       
     275       74.3392         0.000       
     274       74.1531         0.000       
     273       73.0683         0.000       
     272       72.1024         0.000       
     271       71.4570         0.000       
     270       71.0704         0.000       
     269       70.5165         0.000       
     268       70.3520         0.000       
     267       70.1256         0.000       
     266       69.8323         0.000       
     265       69.2619         0.000       
     264       68.5602         0.000       
     263       67.7543         0.000       
     262       67.5464         0.000       
     261       67.2592         0.000       
     260       67.0336         0.000       
     259       66.0754         0.000       
     258       65.3556         0.000       
     257       65.0315         0.000       
     256       64.4945         0.000       
     255       63.7089         0.000       
     254       63.4746         0.000       
     253       63.0359         0.000       
     252       62.8012         0.000       
     251       62.5912         0.000       
     250       62.3704         0.000       
     249       61.9198         0.000       
     248       61.1402         0.000       
     247       61.0964         0.000       
     246       60.3466         0.000       
     245       59.6243         0.000       
     244       59.0120         0.000       
     243       58.5419         0.000       
     242       58.3096         0.000       
     241       57.4760         0.000       
     240       57.1488         0.000       
     239       56.4547         0.000       
     238       56.0356         0.000       
     237       55.4109         0.000       
     236       55.0161         0.000       
     235       54.6235         0.000       
     234       54.4357         0.000       
     233       54.2837         0.000       
     232       53.7344         0.000       
     231       53.4359         0.000       
     230       53.1984         0.000       
     229       52.3538         0.000       
     228       51.5952         0.000       
     227       51.4475         0.000       
     226       50.6998         0.000       
     225       50.4555         0.000       
     224       50.1279         0.000       
     223       49.6101         0.000       
     222       49.4783         0.000       
     221       49.2744         0.000       
     220       48.8582         0.000       
     219       48.2703         0.000       
     218       48.1084         0.000       
     217       47.9713         0.000       
     216       47.1658         0.000       
     215       46.6874         0.000       
     214       45.7822         0.000       
     213       45.5302         0.000       
     212       44.8707         0.000       
     211       44.6807         0.000       
     210       44.3402         0.000       
     209       43.6027         0.000       
     208       43.1705         0.000       
     207       43.0504         0.000       
     206       42.4967         0.000       
     205       41.8740         0.000       
     204       41.4525         0.000       
     203       40.9569         0.000       
     202       40.6878         0.000       
     201       40.5454         0.000       
     200       39.8166         0.000       
     199       39.3449         0.000       
     198       39.2146         0.000       
     197       38.8167         0.000       
     196       38.5805         0.000       
     195       38.4038         0.000       
     194       37.8094         0.000       
     193       37.5193         0.000       
     192       37.4248         0.000       
     191       36.7210         0.000       
     190       36.3203         0.000       
     189       36.0023         0.000       
     188       35.8680         0.000       
     187       35.7445         0.000       
     186       35.3270         0.000       
     185       34.9275         0.000       
     184       34.6592         0.000       
     183       34.4905         0.000       
     182       33.8884         0.000       
     181       33.5526         0.000       
     180       33.1866         0.000       
     179       32.9160         0.000       
     178       32.8038         0.000       
     177       31.5291         0.000       
     176       31.0775         0.000       
     175       30.8304         0.000       
     174       30.5777         0.000       
     173       30.2324         0.000       
     172       30.1330         0.000       
     171       30.0060         0.000       
     170       29.2144         0.000       
     169       29.1492         0.000       
     168       28.8440         0.000       
     167       28.6141         0.000       
     166       28.2054         0.000       
     165       27.9140         0.000       
     164       27.7997         0.000       
     163       27.6142         0.000       
     162       27.2581         0.000       
     161       26.9074         0.000       
     160       26.7377         0.000       
     159       26.3862         0.000       
     158       26.1187         0.000       
     157       25.6713         0.000       
     156       25.3045         0.000       
     155       24.9693         0.000       
     154       24.3304         0.000       
     153       24.1254         0.000       
     152       23.8668         0.000       
     151       23.6342         0.000       
     150       22.9305         0.000       
     149       22.6094         0.000       
     148       22.4777         0.000       
     147       22.0836         0.000       
     146       21.6017         0.000       
     145       21.3349         0.000       
     144       20.8283         0.000       
     143       20.5930         0.000       
     142       20.2369         0.000       
     141       20.0076         0.000       
     140       19.7450         0.000       
     139       19.1860         0.000       
     138       18.9015         0.000       
     137       18.4754         0.000       
     136       18.0199         0.000       
     135       17.5238         0.000       
     134       17.3374         0.000       
     133       17.1097         0.000       
     132       16.7456         0.000       
     131       16.3973         0.000       
     130       16.1162         0.000       
     129       15.7797         0.000       
     128       15.2699         0.000       
     127       14.8099         0.000       
     126       14.6217         0.000       
     125       14.3328         0.000       
     124       13.8344         0.000       
     123       13.5724         0.000       
     122       13.3391         0.000       
     121       12.9223         0.000       
     120       12.3740         0.000       
     119       11.9900         0.000       
     118       11.7351         0.000       
     117       11.5653         0.000       
     116       11.4491         0.000       
     115       11.1298         0.000       
     114       10.8098         0.000       
     113       10.6746         0.000       
     112       10.4542         0.000       
     111       10.3293         0.000       
     110       10.1150         0.000       
     109        9.8394         0.000       
     108        9.8155         0.000       
     107        9.4066         0.000       
     106        9.0622         0.000       
     105        9.0037         0.000       
     104        8.8655         0.000       
     103        8.6961         0.000       
     102        8.5409         0.000       
     101        8.3855         0.000       
     100        8.2450         0.000       
      99        7.9044         0.000       
      98        7.5949         0.000       
      97        7.4945         0.000       
      96        7.3906         0.000       
      95        7.3003         0.000       
      94        7.1692         0.000       
      93        6.9343         0.000       
      92        6.6646         0.000       
      91        6.5631         0.000       
      90        6.3647         0.000       
      89        5.9351         0.000       
      88        5.6544         0.000       
      87        5.4633         0.000       
      86        5.3355         0.000       
      85        5.1345         0.000       
      84        4.6942         0.000       
      83        4.5838         0.000       
      82        4.4820         0.000       
      81        4.3500         0.000       
      80        4.1559         0.000       
      79        4.0401         0.000       
      78        3.7790         0.000       
      77        3.6289         0.000       
      76        3.5388         0.000       
      75        3.1235         0.000       
      74        2.9105         0.000       
      73        2.3540         0.000       
      72        2.1933         0.000       
      71        2.0301         0.000       
      70        1.8224         0.000       
      69        1.5902         0.000       
      68        1.3849         0.000       
      67        1.2343         0.000       
      66        1.0755         0.000       
      65        0.8938         0.000       
      64        0.6209         0.000       
      63        0.4592         0.000       
      62        0.3527         0.000       
      61       -0.0274         0.000       
      60       -0.3239         0.000       
      59       -0.4939         0.000       
      58       -0.8295         0.000       
      57       -1.1831         0.000       
      56       -1.9835         0.000       
      55       -2.0596         0.000       
      54       -3.6777         0.000 < LUMO
      53       -5.7210         2.000 < HOMO
      52       -5.7750         2.000       
      51       -7.0291         2.000       
      50       -7.0650         2.000       
      49       -7.3376         2.000       
      48       -8.4976         2.000       
      47       -8.6989         2.000       
      46       -8.8207         2.000       
      45       -8.8765         2.000       
      44       -9.0907         2.000       
      43       -9.3657         2.000       
      42       -9.6755         2.000       
      41       -9.8764         2.000       
      40      -10.1715         2.000       
      39      -10.5333         2.000       
      38      -10.8870         2.000       
      37      -11.0280         2.000       
      36      -11.2503         2.000       
      35      -11.4668         2.000       
      34      -11.7756         2.000       
      33      -11.9915         2.000       
      32      -12.2818         2.000       
      31      -12.6913         2.000       
      30      -13.4485         2.000       
      29      -13.8749         2.000       
      28      -15.1446         2.000       
      27      -15.5160         2.000       
      26      -15.8555         2.000       
      25      -16.9827         2.000       
      24      -18.2919         2.000       
      23      -19.1756         2.000       
      22      -19.2144         2.000       
      21      -19.9462         2.000       
      20      -21.3321         2.000       
      19      -22.1737         2.000       
      18      -22.7456         2.000       
      17      -25.5787         2.000       
      16      -26.9812         2.000       
      15     -270.3541         2.000       
      14     -270.8642         2.000       
      13     -270.8811         2.000       
      12     -270.9074         2.000       
      11     -270.9439         2.000       
      10     -271.0295         2.000       
       9     -271.3343         2.000       
       8     -271.5079         2.000       
       7     -272.0823         2.000       
       6     -272.7072         2.000       
       5     -272.8066         2.000       
       4     -381.8354         2.000       
       3     -382.4477         2.000       
       2     -385.7055         2.000       
       1     -510.8039         2.000       

AMS application finished. Exiting.
NORMAL TERMINATION
     Total cpu time:    2316.99
  Total system time:       7.91
 Total elapsed time:    2339.76
NORMAL TERMINATION
