srun: Job 662083 step creation temporarily disabled, retrying (Requested nodes are busy)
srun: Job 662083 step creation still disabled, retrying (Requested nodes are busy)
srun: Job 662083 step creation still disabled, retrying (Requested nodes are busy)
srun: Job 662083 step creation still disabled, retrying (Requested nodes are busy)
srun: Job 662083 step creation still disabled, retrying (Requested nodes are busy)
srun: Job 662083 step creation still disabled, retrying (Requested nodes are busy)
srun: Job 662083 step creation still disabled, retrying (Requested nodes are busy)
srun: Job 662083 step creation still disabled, retrying (Requested nodes are busy)
srun: Job 662083 step creation still disabled, retrying (Requested nodes are busy)
srun: Job 662083 step creation still disabled, retrying (Requested nodes are busy)
srun: Job 662083 step creation still disabled, retrying (Requested nodes are busy)
srun: Job 662083 step creation still disabled, retrying (Requested nodes are busy)
srun: Job 662083 step creation still disabled, retrying (Requested nodes are busy)
srun: Job 662083 step creation still disabled, retrying (Requested nodes are busy)
srun: Job 662083 step creation still disabled, retrying (Requested nodes are busy)
srun: Step created for StepId=662083.38

 *******************************************************************************
 *                                                                             *
 *  --------------------------------                                           *
 *   Amsterdam Modeling Suite (AMS)              2026.103                      *
 *  --------------------------------                                           *
 *                                               r260501 2026-05-01 873454b5   *
 *                                                                             *
 *                                                                             *
 *                              =================                              *
 *                              |               |                              *
 *                              |     A M S     |                              *
 *                              |               |                              *
 *                              =================                              *
 *                                                                             *
 *                                                                             *
 *   Online information and documentation:  https://www.scm.com/support/       *
 *   E-mail:  support@scm.com   info@scm.com                                   *
 *                                                                             *
 *   Scientific publications using AMS results must be properly referenced     *
 *   See the User Manuals (or the web site) for recommended citations          *
 *   The terms and conditions of the End User License Agreement apply to       *
 *   the use of AMS, https://www.scm.com/license-terms/                        *
 *                                                                             *
 **********************  x86_64_linux_intel / intelmpi  ************************
 
 Licensed to: Jong-June Jeon / University of Seoul 2026-06-02 13:44:15
 SCM User ID: u30731
  
 AMS 2026.103  RunTime: Jun03-2026 00:47:57  ShM Nodes: 1  Procs: 1

 AMS jobname: c2_fragB_ts
 AMS jobid  : 950604374

 Start   directory: /gpfs/home1/yeseo1ee/projects/eda-asm-prediction/ADF_800/adf_outputs/batch_000/dipolar_000238/
 Results directory: /gpfs/home1/yeseo1ee/projects/eda-asm-prediction/ADF_800/adf_outputs/batch_000/dipolar_000238/c2_fragB_ts.results/
 Scratch directory: /tmp/amstmp_c2_fragB_ts_kid0.950604374/

 RNG seed: -545405353 1812638707 1307580971 -62662348 -592283711 -352054488 -371182015 1388181247



                      ************************************************************************
                      *  ADF 2026.103  RunTime: Jun03-2026 00:47:57  ShM Nodes: 1  Procs: 1  *
                      ************************************************************************
  

       ****************************
       * SINGLE POINT CALCULATION *
       ****************************

--------
Geometry
--------
Formula: C9H8N2O
Atoms
  Index Symbol   x (angstrom)   y (angstrom)   z (angstrom)
      1      C     0.58578000    -0.40707000    -0.52571000
      2      C     2.01018000    -0.46804000    -0.68070000
      3      C     2.59937000    -0.01969000    -1.88056000
      4      C     3.98364000    -0.07164000    -2.02468000
      5      C     4.78068000    -0.56469000    -0.98461000
      6      C     4.19600000    -1.00630000     0.20762000
      7      C     2.81350000    -0.95146000     0.37015000
      8      N    -0.48631000    -0.71717000    -0.97676000
      9      N    -1.72014000    -0.40582000    -0.99081000
     10      C    -2.65452000    -1.42633000    -0.76733000
     11      C    -2.15535000    -2.83813000    -0.62639000
     12      O    -3.83428000    -1.11510000    -0.68805000
     13      H     1.96604000     0.36126000    -2.68335000
     14      H     4.44426000     0.27177000    -2.95324000
     15      H     5.86568000    -0.60369000    -1.10448000
     16      H     4.82157000    -1.39080000     1.01563000
     17      H     2.34640000    -1.28608000     1.29732000
     18      H    -1.58370000    -3.13659000    -1.51860000
     19      H    -3.00642000    -3.51414000    -0.48133000
     20      H    -1.47426000    -2.90548000     0.23762000

Total System Charge              0.00000


----------------
ADF Engine Input
----------------
 
   Basis
     Type TZ2P
     Core None
   End
   XC
     GGA BLYP
     Dispersion GRIMME3 BJDAMP
   End
   Symmetry NOSYM
   NumericalQuality Normal
   Unrestricted No
   SCF
     Iterations 200
     Converge 1.0e-6
   End
   Save TAPE21
 

 Title: *** (NO TITLE) ***

 *** adf ***



 ===========================
 A T T A C H E D   F I L E S
 ===========================
  



 ===============================
 M O D E L   P A R A M E T E R S
 ===============================
  
 DENSITY FUNCTIONAL POTENTIAL (scf)
    LDA:                               Exchange only                           == Not Default ==
    Gradient Corrections:              Becke88 LYP                             == Not Default ==

 SPIN  (restricted / unrestr.)
    Molecule:                          Restricted                               
    Fragments:                         Restricted                               

 OTHER ASPECTS
    Relativistic Corrections:          scalar (ZORA,MAPA)                       

    Nuclear Charge Density Model:      Point Charge Nuclei                      
    Core Treatment:                    Frozen Orbital(s)                        

    Hyperfine or Zeeman Interaction:   ---                                      

 Settings for Grimme D3 dispersion correction

      damping                        BJ
      s6                          1.000
      s8                          2.700
      a1                          0.430
      a2                          4.236

 Other (technical) parameters

      alpha                      14.000
      version                         4
 


 Fragment File(s)
 ----------------
 C:
         file : /gpfs/home1/yeseo1ee/projects/eda-asm-prediction/ADF_800/adf_outputs/batch_000/dipolar_000238/c2_fragB_ts.results/t21.50BA88D5.C
         jobid: 0
         title: Carbon (TZ2P)
 N:
         file : /gpfs/home1/yeseo1ee/projects/eda-asm-prediction/ADF_800/adf_outputs/batch_000/dipolar_000238/c2_fragB_ts.results/t21.44EAA48D.N
         jobid: 0
         title: Nitrogen (TZ2P)
 O:
         file : /gpfs/home1/yeseo1ee/projects/eda-asm-prediction/ADF_800/adf_outputs/batch_000/dipolar_000238/c2_fragB_ts.results/t21.6E90ABAE.O
         jobid: 0
         title: Oxygen (TZ2P)
 H:
         file : /gpfs/home1/yeseo1ee/projects/eda-asm-prediction/ADF_800/adf_outputs/batch_000/dipolar_000238/c2_fragB_ts.results/t21.6F35CCAB.H
         jobid: 0
         title: Hydrogen (TZ2P)



 ===============
 G E O M E T R Y  ***  3D  Molecule  ***
 ===============
  

 ATOMS
 =====                            X Y Z                    CHARGE
                                (Angstrom)             Nucl     +Core       At.Mass
                       --------------------------    ----------------       -------
    1  C               0.5858   -0.4071   -0.5257      6.00      6.00       12.0000
    2  C               2.0102   -0.4680   -0.6807      6.00      6.00       12.0000
    3  C               2.5994   -0.0197   -1.8806      6.00      6.00       12.0000
    4  C               3.9836   -0.0716   -2.0247      6.00      6.00       12.0000
    5  C               4.7807   -0.5647   -0.9846      6.00      6.00       12.0000
    6  C               4.1960   -1.0063    0.2076      6.00      6.00       12.0000
    7  C               2.8135   -0.9515    0.3701      6.00      6.00       12.0000
    8  N              -0.4863   -0.7172   -0.9768      7.00      7.00       14.0031
    9  N              -1.7201   -0.4058   -0.9908      7.00      7.00       14.0031
   10  C              -2.6545   -1.4263   -0.7673      6.00      6.00       12.0000
   11  C              -2.1553   -2.8381   -0.6264      6.00      6.00       12.0000
   12  O              -3.8343   -1.1151   -0.6880      8.00      8.00       15.9949
   13  H               1.9660    0.3613   -2.6833      1.00      1.00        1.0078
   14  H               4.4443    0.2718   -2.9532      1.00      1.00        1.0078
   15  H               5.8657   -0.6037   -1.1045      1.00      1.00        1.0078
   16  H               4.8216   -1.3908    1.0156      1.00      1.00        1.0078
   17  H               2.3464   -1.2861    1.2973      1.00      1.00        1.0078
   18  H              -1.5837   -3.1366   -1.5186      1.00      1.00        1.0078
   19  H              -3.0064   -3.5141   -0.4813      1.00      1.00        1.0078
   20  H              -1.4743   -2.9055    0.2376      1.00      1.00        1.0078


 FRAGMENTS
 =========                                     Atoms in this Fragment     Cart. coord.s (Angstrom)
                                               -------------------------------------------------------
    1  C                                                 1  C            0.5858   -0.4071   -0.5257
    2  C                                                 2  C            2.0102   -0.4680   -0.6807
    3  C                                                 3  C            2.5994   -0.0197   -1.8806
    4  C                                                 4  C            3.9836   -0.0716   -2.0247
    5  C                                                 5  C            4.7807   -0.5647   -0.9846
    6  C                                                 6  C            4.1960   -1.0063    0.2076
    7  C                                                 7  C            2.8135   -0.9515    0.3701
    8  C                                                10  C           -2.6545   -1.4263   -0.7673
    9  C                                                11  C           -2.1553   -2.8381   -0.6264
   10  N                                                 8  N           -0.4863   -0.7172   -0.9768
   11  N                                                 9  N           -1.7201   -0.4058   -0.9908
   12  O                                                12  O           -3.8343   -1.1151   -0.6880
   13  H                                                13  H            1.9660    0.3613   -2.6833
   14  H                                                14  H            4.4443    0.2718   -2.9532
   15  H                                                15  H            5.8657   -0.6037   -1.1045
   16  H                                                16  H            4.8216   -1.3908    1.0156
   17  H                                                17  H            2.3464   -1.2861    1.2973
   18  H                                                18  H           -1.5837   -3.1366   -1.5186
   19  H                                                19  H           -3.0064   -3.5141   -0.4813
   20  H                                                20  H           -1.4743   -2.9055    0.2376



 =====================================
 S Y M M E T R Y ,   E L E C T R O N S
 =====================================
  
 Symmetry: NOSYM

 Irreducible Representations, including subspecies
 -------------------------------------------------
 A


 Configuration of Valence Electrons
 ==================================
 ( determined in the SCF procedure )

 Total:   84

 Net Charge: 0 (Nuclei minus Electrons)

 Aufbau principle for MO occupations will be applied through SCF cycle no.     100
 Thereafter, the program will assign electrons to MOs that are spatially
 similar to the occupied MOs in a "reference" cycle ("KeepOrbitals").
 The reference cycle is always the PREVIOUS cycle: it will evolve with
 the SCF procedure.
 ***************************************************************************************************



                                      ****************************************
                                      *  B U I L D : (Fragments, Functions)  *
                                      ****************************************
  



 =======
 S F O s  ***  (Symmetrized Fragment Orbitals)  ***
 =======
  
 SFOs are linear combinations of (valence) Fragment Orbitals (FOs), such that the SFOs transform as the
 irreducible representations of the (molecular) symmetry group. Each SFO is therefore characterized by
 an irrep of the molecule and by a few (or only one) generating FOs.
 The SFOs constitute a symmetry-adapted basis for the Fock matrix. The MO eigenvector coefficients in
 this basis provide a direct interpretation of the MOs in terms of Frontier Orbital Theory.

 The SFOs are combined with auxiliary Core Functions (CFs) to ensure orthogonalization on the (frozen)
 Core Orbitals (COs). The Core-orthogonalized SFOs (CSFOs) constitute the true Fock basis.

 The FOs, and hence also the (C)SFOs are combinations of the elementary basis functions (BAS). The basis
 functions that participate in the description of the SFOs depend on the irrep. The indices of the
 involved functions are printed below for each irrep.
 (The complete list of primitive basis functions is printed in another section)

 Total nr. of (C)SFOs (summation over all irreps) :   400

 NOTE: a (C)SFO that is defined as a combination of more than one FO is usually NOT normalized.



                                       === A ===
 Nr. of SFOs :  400
 Cartesian basis functions that participate in this irrep (total number =   456) :
      1     2     3     4     5     6     9    12     7    10
     13     8    11    14    15    16    17    18    19    20
     21    22    23    24    25    26    27    28    29    30
     31    32    33    34    35    36    39    42    37    40
     43    38    41    44    45    46    47    48    49    50
     51    52    53    54    55    56    57    58    59    60
     61    62    63    64    65    66    69    72    67    70
     73    68    71    74    75    76    77    78    79    80
     81    82    83    84    85    86    87    88    89    90
     91    92    93    94    95    96    99   102    97   100
    103    98   101   104   105   106   107   108   109   110
    111   112   113   114   115   116   117   118   119   120
    121   122   123   124   125   126   129   132   127   130
    133   128   131   134   135   136   137   138   139   140
    141   142   143   144   145   146   147   148   149   150
    151   152   153   154   155   156   159   162   157   160
    163   158   161   164   165   166   167   168   169   170
    171   172   173   174   175   176   177   178   179   180
    181   182   183   184   185   186   189   192   187   190
    193   188   191   194   195   196   197   198   199   200
    201   202   203   204   205   206   207   208   209   210
    211   212   213   214   215   216   219   222   217   220
    223   218   221   224   225   226   227   228   229   230
    231   232   233   234   235   236   237   238   239   240
    241   242   243   244   245   246   249   252   247   250
    253   248   251   254   255   256   257   258   259   260
    261   262   263   264   265   266   267   268   269   270
    271   272   273   274   275   276   279   282   277   280
    283   278   281   284   285   286   287   288   289   290
    291   292   293   294   295   296   297   298   299   300
    301   302   303   304   305   306   309   312   307   310
    313   308   311   314   315   316   317   318   319   320
    321   322   323   324   325   326   327   328   329   330
    331   332   333   334   335   336   339   342   337   340
    343   338   341   344   345   346   347   348   349   350
    351   352   353   354   355   356   357   358   359   360
    361   362   363   364   365   366   367   368   369   370
    371   372   373   374   375   376   377   378   379   380
    381   382   383   384   385   386   387   388   389   390
    391   392   393   394   395   396   397   398   399   400
    401   402   403   404   405   406   407   408   409   410
    411   412   413   414   415   416   417   418   419   420
    421   422   423   424   425   426   427   428   429   430
    431   432   433   434   435   436   437   438   439   440
    441   442   443   444   445   446   447   448   449   450
    451   452   453   454   455   456

    SFO  (index         Fragment          Generating    Expansion in Fragment Orbitals
  indx  incl.CFs)   Occup   Orb.Energy   FragmentType  Coeff.   Orbital     on Fragment
 --------------------------------------------------------------------------------------
     1       1      2.000     -10.066 au  C             1.00      1 S               1
                        (    -273.921 eV)
     2       2      2.000      -0.501 au  C             1.00      2 S               1
                        (     -13.620 eV)
     3       3       --         0.373 au  C             1.00      3 S               1
                        (      10.158 eV)
     4       4       --         5.405 au  C             1.00      4 S               1
                        (     147.073 eV)
     5       5       --        49.848 au  C             1.00      5 S               1
                        (    1356.422 eV)
     6       6      0.667      -0.193 au  C             1.00      1 P:x             1
                        (      -5.239 eV)
     7       7       --         0.169 au  C             1.00      2 P:x             1
                        (       4.589 eV)
     8       8       --         2.013 au  C             1.00      3 P:x             1
                        (      54.789 eV)
     9       9      0.667      -0.193 au  C             1.00      1 P:y             1
                        (      -5.239 eV)
    10      10       --         0.169 au  C             1.00      2 P:y             1
                        (       4.589 eV)
    11      11       --         2.013 au  C             1.00      3 P:y             1
                        (      54.789 eV)
    12      12      0.667      -0.193 au  C             1.00      1 P:z             1
                        (      -5.239 eV)
    13      13       --         0.169 au  C             1.00      2 P:z             1
                        (       4.589 eV)
    14      14       --         2.013 au  C             1.00      3 P:z             1
                        (      54.789 eV)
    15      15       --         1.243 au  C             1.00      1 D:z2            1
                        (      33.824 eV)
    16      16       --         1.243 au  C             1.00      1 D:x2-y2         1
                        (      33.824 eV)
    17      17       --         1.243 au  C             1.00      1 D:xy            1
                        (      33.824 eV)
    18      18       --         1.243 au  C             1.00      1 D:xz            1
                        (      33.824 eV)
    19      19       --         1.243 au  C             1.00      1 D:yz            1
                        (      33.824 eV)
    20      20       --         4.016 au  C             1.00      1 F:z3            1
                        (     109.271 eV)
    21      21       --         4.016 au  C             1.00      1 F:z             1
                        (     109.271 eV)
    22      22       --         4.016 au  C             1.00      1 F:xyz           1
                        (     109.271 eV)
    23      23       --         4.016 au  C             1.00      1 F:z2x           1
                        (     109.271 eV)
    24      24       --         4.016 au  C             1.00      1 F:z2y           1
                        (     109.271 eV)
    25      25       --         4.016 au  C             1.00      1 F:x             1
                        (     109.271 eV)
    26      26       --         4.016 au  C             1.00      1 F:y             1
                        (     109.271 eV)
    27      27      2.000     -10.066 au  C             1.00      1 S               2
                        (    -273.921 eV)
    28      28      2.000      -0.501 au  C             1.00      2 S               2
                        (     -13.620 eV)
    29      29       --         0.373 au  C             1.00      3 S               2
                        (      10.158 eV)
    30      30       --         5.405 au  C             1.00      4 S               2
                        (     147.073 eV)
    31      31       --        49.848 au  C             1.00      5 S               2
                        (    1356.422 eV)
    32      32      0.667      -0.193 au  C             1.00      1 P:x             2
                        (      -5.239 eV)
    33      33       --         0.169 au  C             1.00      2 P:x             2
                        (       4.589 eV)
    34      34       --         2.013 au  C             1.00      3 P:x             2
                        (      54.789 eV)
    35      35      0.667      -0.193 au  C             1.00      1 P:y             2
                        (      -5.239 eV)
    36      36       --         0.169 au  C             1.00      2 P:y             2
                        (       4.589 eV)
    37      37       --         2.013 au  C             1.00      3 P:y             2
                        (      54.789 eV)
    38      38      0.667      -0.193 au  C             1.00      1 P:z             2
                        (      -5.239 eV)
    39      39       --         0.169 au  C             1.00      2 P:z             2
                        (       4.589 eV)
    40      40       --         2.013 au  C             1.00      3 P:z             2
                        (      54.789 eV)
    41      41       --         1.243 au  C             1.00      1 D:z2            2
                        (      33.824 eV)
    42      42       --         1.243 au  C             1.00      1 D:x2-y2         2
                        (      33.824 eV)
    43      43       --         1.243 au  C             1.00      1 D:xy            2
                        (      33.824 eV)
    44      44       --         1.243 au  C             1.00      1 D:xz            2
                        (      33.824 eV)
    45      45       --         1.243 au  C             1.00      1 D:yz            2
                        (      33.824 eV)
    46      46       --         4.016 au  C             1.00      1 F:z3            2
                        (     109.271 eV)
    47      47       --         4.016 au  C             1.00      1 F:z             2
                        (     109.271 eV)
    48      48       --         4.016 au  C             1.00      1 F:xyz           2
                        (     109.271 eV)
    49      49       --         4.016 au  C             1.00      1 F:z2x           2
                        (     109.271 eV)
    50      50       --         4.016 au  C             1.00      1 F:z2y           2
                        (     109.271 eV)
    51      51       --         4.016 au  C             1.00      1 F:x             2
                        (     109.271 eV)
    52      52       --         4.016 au  C             1.00      1 F:y             2
                        (     109.271 eV)
    53      53      2.000     -10.066 au  C             1.00      1 S               3
                        (    -273.921 eV)
    54      54      2.000      -0.501 au  C             1.00      2 S               3
                        (     -13.620 eV)
    55      55       --         0.373 au  C             1.00      3 S               3
                        (      10.158 eV)
    56      56       --         5.405 au  C             1.00      4 S               3
                        (     147.073 eV)
    57      57       --        49.848 au  C             1.00      5 S               3
                        (    1356.422 eV)
    58      58      0.667      -0.193 au  C             1.00      1 P:x             3
                        (      -5.239 eV)
    59      59       --         0.169 au  C             1.00      2 P:x             3
                        (       4.589 eV)
    60      60       --         2.013 au  C             1.00      3 P:x             3
                        (      54.789 eV)
    61      61      0.667      -0.193 au  C             1.00      1 P:y             3
                        (      -5.239 eV)
    62      62       --         0.169 au  C             1.00      2 P:y             3
                        (       4.589 eV)
    63      63       --         2.013 au  C             1.00      3 P:y             3
                        (      54.789 eV)
    64      64      0.667      -0.193 au  C             1.00      1 P:z             3
                        (      -5.239 eV)
    65      65       --         0.169 au  C             1.00      2 P:z             3
                        (       4.589 eV)
    66      66       --         2.013 au  C             1.00      3 P:z             3
                        (      54.789 eV)
    67      67       --         1.243 au  C             1.00      1 D:z2            3
                        (      33.824 eV)
    68      68       --         1.243 au  C             1.00      1 D:x2-y2         3
                        (      33.824 eV)
    69      69       --         1.243 au  C             1.00      1 D:xy            3
                        (      33.824 eV)
    70      70       --         1.243 au  C             1.00      1 D:xz            3
                        (      33.824 eV)
    71      71       --         1.243 au  C             1.00      1 D:yz            3
                        (      33.824 eV)
    72      72       --         4.016 au  C             1.00      1 F:z3            3
                        (     109.271 eV)
    73      73       --         4.016 au  C             1.00      1 F:z             3
                        (     109.271 eV)
    74      74       --         4.016 au  C             1.00      1 F:xyz           3
                        (     109.271 eV)
    75      75       --         4.016 au  C             1.00      1 F:z2x           3
                        (     109.271 eV)
    76      76       --         4.016 au  C             1.00      1 F:z2y           3
                        (     109.271 eV)
    77      77       --         4.016 au  C             1.00      1 F:x             3
                        (     109.271 eV)
    78      78       --         4.016 au  C             1.00      1 F:y             3
                        (     109.271 eV)
    79      79      2.000     -10.066 au  C             1.00      1 S               4
                        (    -273.921 eV)
    80      80      2.000      -0.501 au  C             1.00      2 S               4
                        (     -13.620 eV)
    81      81       --         0.373 au  C             1.00      3 S               4
                        (      10.158 eV)
    82      82       --         5.405 au  C             1.00      4 S               4
                        (     147.073 eV)
    83      83       --        49.848 au  C             1.00      5 S               4
                        (    1356.422 eV)
    84      84      0.667      -0.193 au  C             1.00      1 P:x             4
                        (      -5.239 eV)
    85      85       --         0.169 au  C             1.00      2 P:x             4
                        (       4.589 eV)
    86      86       --         2.013 au  C             1.00      3 P:x             4
                        (      54.789 eV)
    87      87      0.667      -0.193 au  C             1.00      1 P:y             4
                        (      -5.239 eV)
    88      88       --         0.169 au  C             1.00      2 P:y             4
                        (       4.589 eV)
    89      89       --         2.013 au  C             1.00      3 P:y             4
                        (      54.789 eV)
    90      90      0.667      -0.193 au  C             1.00      1 P:z             4
                        (      -5.239 eV)
    91      91       --         0.169 au  C             1.00      2 P:z             4
                        (       4.589 eV)
    92      92       --         2.013 au  C             1.00      3 P:z             4
                        (      54.789 eV)
    93      93       --         1.243 au  C             1.00      1 D:z2            4
                        (      33.824 eV)
    94      94       --         1.243 au  C             1.00      1 D:x2-y2         4
                        (      33.824 eV)
    95      95       --         1.243 au  C             1.00      1 D:xy            4
                        (      33.824 eV)
    96      96       --         1.243 au  C             1.00      1 D:xz            4
                        (      33.824 eV)
    97      97       --         1.243 au  C             1.00      1 D:yz            4
                        (      33.824 eV)
    98      98       --         4.016 au  C             1.00      1 F:z3            4
                        (     109.271 eV)
    99      99       --         4.016 au  C             1.00      1 F:z             4
                        (     109.271 eV)
   100     100       --         4.016 au  C             1.00      1 F:xyz           4
                        (     109.271 eV)
   101     101       --         4.016 au  C             1.00      1 F:z2x           4
                        (     109.271 eV)
   102     102       --         4.016 au  C             1.00      1 F:z2y           4
                        (     109.271 eV)
   103     103       --         4.016 au  C             1.00      1 F:x             4
                        (     109.271 eV)
   104     104       --         4.016 au  C             1.00      1 F:y             4
                        (     109.271 eV)
   105     105      2.000     -10.066 au  C             1.00      1 S               5
                        (    -273.921 eV)
   106     106      2.000      -0.501 au  C             1.00      2 S               5
                        (     -13.620 eV)
   107     107       --         0.373 au  C             1.00      3 S               5
                        (      10.158 eV)
   108     108       --         5.405 au  C             1.00      4 S               5
                        (     147.073 eV)
   109     109       --        49.848 au  C             1.00      5 S               5
                        (    1356.422 eV)
   110     110      0.667      -0.193 au  C             1.00      1 P:x             5
                        (      -5.239 eV)
   111     111       --         0.169 au  C             1.00      2 P:x             5
                        (       4.589 eV)
   112     112       --         2.013 au  C             1.00      3 P:x             5
                        (      54.789 eV)
   113     113      0.667      -0.193 au  C             1.00      1 P:y             5
                        (      -5.239 eV)
   114     114       --         0.169 au  C             1.00      2 P:y             5
                        (       4.589 eV)
   115     115       --         2.013 au  C             1.00      3 P:y             5
                        (      54.789 eV)
   116     116      0.667      -0.193 au  C             1.00      1 P:z             5
                        (      -5.239 eV)
   117     117       --         0.169 au  C             1.00      2 P:z             5
                        (       4.589 eV)
   118     118       --         2.013 au  C             1.00      3 P:z             5
                        (      54.789 eV)
   119     119       --         1.243 au  C             1.00      1 D:z2            5
                        (      33.824 eV)
   120     120       --         1.243 au  C             1.00      1 D:x2-y2         5
                        (      33.824 eV)
   121     121       --         1.243 au  C             1.00      1 D:xy            5
                        (      33.824 eV)
   122     122       --         1.243 au  C             1.00      1 D:xz            5
                        (      33.824 eV)
   123     123       --         1.243 au  C             1.00      1 D:yz            5
                        (      33.824 eV)
   124     124       --         4.016 au  C             1.00      1 F:z3            5
                        (     109.271 eV)
   125     125       --         4.016 au  C             1.00      1 F:z             5
                        (     109.271 eV)
   126     126       --         4.016 au  C             1.00      1 F:xyz           5
                        (     109.271 eV)
   127     127       --         4.016 au  C             1.00      1 F:z2x           5
                        (     109.271 eV)
   128     128       --         4.016 au  C             1.00      1 F:z2y           5
                        (     109.271 eV)
   129     129       --         4.016 au  C             1.00      1 F:x             5
                        (     109.271 eV)
   130     130       --         4.016 au  C             1.00      1 F:y             5
                        (     109.271 eV)
   131     131      2.000     -10.066 au  C             1.00      1 S               6
                        (    -273.921 eV)
   132     132      2.000      -0.501 au  C             1.00      2 S               6
                        (     -13.620 eV)
   133     133       --         0.373 au  C             1.00      3 S               6
                        (      10.158 eV)
   134     134       --         5.405 au  C             1.00      4 S               6
                        (     147.073 eV)
   135     135       --        49.848 au  C             1.00      5 S               6
                        (    1356.422 eV)
   136     136      0.667      -0.193 au  C             1.00      1 P:x             6
                        (      -5.239 eV)
   137     137       --         0.169 au  C             1.00      2 P:x             6
                        (       4.589 eV)
   138     138       --         2.013 au  C             1.00      3 P:x             6
                        (      54.789 eV)
   139     139      0.667      -0.193 au  C             1.00      1 P:y             6
                        (      -5.239 eV)
   140     140       --         0.169 au  C             1.00      2 P:y             6
                        (       4.589 eV)
   141     141       --         2.013 au  C             1.00      3 P:y             6
                        (      54.789 eV)
   142     142      0.667      -0.193 au  C             1.00      1 P:z             6
                        (      -5.239 eV)
   143     143       --         0.169 au  C             1.00      2 P:z             6
                        (       4.589 eV)
   144     144       --         2.013 au  C             1.00      3 P:z             6
                        (      54.789 eV)
   145     145       --         1.243 au  C             1.00      1 D:z2            6
                        (      33.824 eV)
   146     146       --         1.243 au  C             1.00      1 D:x2-y2         6
                        (      33.824 eV)
   147     147       --         1.243 au  C             1.00      1 D:xy            6
                        (      33.824 eV)
   148     148       --         1.243 au  C             1.00      1 D:xz            6
                        (      33.824 eV)
   149     149       --         1.243 au  C             1.00      1 D:yz            6
                        (      33.824 eV)
   150     150       --         4.016 au  C             1.00      1 F:z3            6
                        (     109.271 eV)
   151     151       --         4.016 au  C             1.00      1 F:z             6
                        (     109.271 eV)
   152     152       --         4.016 au  C             1.00      1 F:xyz           6
                        (     109.271 eV)
   153     153       --         4.016 au  C             1.00      1 F:z2x           6
                        (     109.271 eV)
   154     154       --         4.016 au  C             1.00      1 F:z2y           6
                        (     109.271 eV)
   155     155       --         4.016 au  C             1.00      1 F:x             6
                        (     109.271 eV)
   156     156       --         4.016 au  C             1.00      1 F:y             6
                        (     109.271 eV)
   157     157      2.000     -10.066 au  C             1.00      1 S               7
                        (    -273.921 eV)
   158     158      2.000      -0.501 au  C             1.00      2 S               7
                        (     -13.620 eV)
   159     159       --         0.373 au  C             1.00      3 S               7
                        (      10.158 eV)
   160     160       --         5.405 au  C             1.00      4 S               7
                        (     147.073 eV)
   161     161       --        49.848 au  C             1.00      5 S               7
                        (    1356.422 eV)
   162     162      0.667      -0.193 au  C             1.00      1 P:x             7
                        (      -5.239 eV)
   163     163       --         0.169 au  C             1.00      2 P:x             7
                        (       4.589 eV)
   164     164       --         2.013 au  C             1.00      3 P:x             7
                        (      54.789 eV)
   165     165      0.667      -0.193 au  C             1.00      1 P:y             7
                        (      -5.239 eV)
   166     166       --         0.169 au  C             1.00      2 P:y             7
                        (       4.589 eV)
   167     167       --         2.013 au  C             1.00      3 P:y             7
                        (      54.789 eV)
   168     168      0.667      -0.193 au  C             1.00      1 P:z             7
                        (      -5.239 eV)
   169     169       --         0.169 au  C             1.00      2 P:z             7
                        (       4.589 eV)
   170     170       --         2.013 au  C             1.00      3 P:z             7
                        (      54.789 eV)
   171     171       --         1.243 au  C             1.00      1 D:z2            7
                        (      33.824 eV)
   172     172       --         1.243 au  C             1.00      1 D:x2-y2         7
                        (      33.824 eV)
   173     173       --         1.243 au  C             1.00      1 D:xy            7
                        (      33.824 eV)
   174     174       --         1.243 au  C             1.00      1 D:xz            7
                        (      33.824 eV)
   175     175       --         1.243 au  C             1.00      1 D:yz            7
                        (      33.824 eV)
   176     176       --         4.016 au  C             1.00      1 F:z3            7
                        (     109.271 eV)
   177     177       --         4.016 au  C             1.00      1 F:z             7
                        (     109.271 eV)
   178     178       --         4.016 au  C             1.00      1 F:xyz           7
                        (     109.271 eV)
   179     179       --         4.016 au  C             1.00      1 F:z2x           7
                        (     109.271 eV)
   180     180       --         4.016 au  C             1.00      1 F:z2y           7
                        (     109.271 eV)
   181     181       --         4.016 au  C             1.00      1 F:x             7
                        (     109.271 eV)
   182     182       --         4.016 au  C             1.00      1 F:y             7
                        (     109.271 eV)
   183     183      2.000     -10.066 au  C             1.00      1 S               8
                        (    -273.921 eV)
   184     184      2.000      -0.501 au  C             1.00      2 S               8
                        (     -13.620 eV)
   185     185       --         0.373 au  C             1.00      3 S               8
                        (      10.158 eV)
   186     186       --         5.405 au  C             1.00      4 S               8
                        (     147.073 eV)
   187     187       --        49.848 au  C             1.00      5 S               8
                        (    1356.422 eV)
   188     188      0.667      -0.193 au  C             1.00      1 P:x             8
                        (      -5.239 eV)
   189     189       --         0.169 au  C             1.00      2 P:x             8
                        (       4.589 eV)
   190     190       --         2.013 au  C             1.00      3 P:x             8
                        (      54.789 eV)
   191     191      0.667      -0.193 au  C             1.00      1 P:y             8
                        (      -5.239 eV)
   192     192       --         0.169 au  C             1.00      2 P:y             8
                        (       4.589 eV)
   193     193       --         2.013 au  C             1.00      3 P:y             8
                        (      54.789 eV)
   194     194      0.667      -0.193 au  C             1.00      1 P:z             8
                        (      -5.239 eV)
   195     195       --         0.169 au  C             1.00      2 P:z             8
                        (       4.589 eV)
   196     196       --         2.013 au  C             1.00      3 P:z             8
                        (      54.789 eV)
   197     197       --         1.243 au  C             1.00      1 D:z2            8
                        (      33.824 eV)
   198     198       --         1.243 au  C             1.00      1 D:x2-y2         8
                        (      33.824 eV)
   199     199       --         1.243 au  C             1.00      1 D:xy            8
                        (      33.824 eV)
   200     200       --         1.243 au  C             1.00      1 D:xz            8
                        (      33.824 eV)
   201     201       --         1.243 au  C             1.00      1 D:yz            8
                        (      33.824 eV)
   202     202       --         4.016 au  C             1.00      1 F:z3            8
                        (     109.271 eV)
   203     203       --         4.016 au  C             1.00      1 F:z             8
                        (     109.271 eV)
   204     204       --         4.016 au  C             1.00      1 F:xyz           8
                        (     109.271 eV)
   205     205       --         4.016 au  C             1.00      1 F:z2x           8
                        (     109.271 eV)
   206     206       --         4.016 au  C             1.00      1 F:z2y           8
                        (     109.271 eV)
   207     207       --         4.016 au  C             1.00      1 F:x             8
                        (     109.271 eV)
   208     208       --         4.016 au  C             1.00      1 F:y             8
                        (     109.271 eV)
   209     209      2.000     -10.066 au  C             1.00      1 S               9
                        (    -273.921 eV)
   210     210      2.000      -0.501 au  C             1.00      2 S               9
                        (     -13.620 eV)
   211     211       --         0.373 au  C             1.00      3 S               9
                        (      10.158 eV)
   212     212       --         5.405 au  C             1.00      4 S               9
                        (     147.073 eV)
   213     213       --        49.848 au  C             1.00      5 S               9
                        (    1356.422 eV)
   214     214      0.667      -0.193 au  C             1.00      1 P:x             9
                        (      -5.239 eV)
   215     215       --         0.169 au  C             1.00      2 P:x             9
                        (       4.589 eV)
   216     216       --         2.013 au  C             1.00      3 P:x             9
                        (      54.789 eV)
   217     217      0.667      -0.193 au  C             1.00      1 P:y             9
                        (      -5.239 eV)
   218     218       --         0.169 au  C             1.00      2 P:y             9
                        (       4.589 eV)
   219     219       --         2.013 au  C             1.00      3 P:y             9
                        (      54.789 eV)
   220     220      0.667      -0.193 au  C             1.00      1 P:z             9
                        (      -5.239 eV)
   221     221       --         0.169 au  C             1.00      2 P:z             9
                        (       4.589 eV)
   222     222       --         2.013 au  C             1.00      3 P:z             9
                        (      54.789 eV)
   223     223       --         1.243 au  C             1.00      1 D:z2            9
                        (      33.824 eV)
   224     224       --         1.243 au  C             1.00      1 D:x2-y2         9
                        (      33.824 eV)
   225     225       --         1.243 au  C             1.00      1 D:xy            9
                        (      33.824 eV)
   226     226       --         1.243 au  C             1.00      1 D:xz            9
                        (      33.824 eV)
   227     227       --         1.243 au  C             1.00      1 D:yz            9
                        (      33.824 eV)
   228     228       --         4.016 au  C             1.00      1 F:z3            9
                        (     109.271 eV)
   229     229       --         4.016 au  C             1.00      1 F:z             9
                        (     109.271 eV)
   230     230       --         4.016 au  C             1.00      1 F:xyz           9
                        (     109.271 eV)
   231     231       --         4.016 au  C             1.00      1 F:z2x           9
                        (     109.271 eV)
   232     232       --         4.016 au  C             1.00      1 F:z2y           9
                        (     109.271 eV)
   233     233       --         4.016 au  C             1.00      1 F:x             9
                        (     109.271 eV)
   234     234       --         4.016 au  C             1.00      1 F:y             9
                        (     109.271 eV)
   235     235      2.000     -14.160 au  N             1.00      1 S              10
                        (    -385.319 eV)
   236     236      2.000      -0.678 au  N             1.00      2 S              10
                        (     -18.450 eV)
   237     237       --         0.517 au  N             1.00      3 S              10
                        (      14.073 eV)
   238     238       --         6.872 au  N             1.00      4 S              10
                        (     186.990 eV)
   239     239       --        63.432 au  N             1.00      5 S              10
                        (    1726.082 eV)
   240     240      1.000      -0.260 au  N             1.00      1 P:x            10
                        (      -7.062 eV)
   241     241       --         0.281 au  N             1.00      2 P:x            10
                        (       7.649 eV)
   242     242       --         3.275 au  N             1.00      3 P:x            10
                        (      89.105 eV)
   243     243      1.000      -0.260 au  N             1.00      1 P:y            10
                        (      -7.062 eV)
   244     244       --         0.281 au  N             1.00      2 P:y            10
                        (       7.649 eV)
   245     245       --         3.275 au  N             1.00      3 P:y            10
                        (      89.105 eV)
   246     246      1.000      -0.260 au  N             1.00      1 P:z            10
                        (      -7.062 eV)
   247     247       --         0.281 au  N             1.00      2 P:z            10
                        (       7.649 eV)
   248     248       --         3.275 au  N             1.00      3 P:z            10
                        (      89.105 eV)
   249     249       --         1.250 au  N             1.00      1 D:z2           10
                        (      34.005 eV)
   250     250       --         1.250 au  N             1.00      1 D:x2-y2        10
                        (      34.005 eV)
   251     251       --         1.250 au  N             1.00      1 D:xy           10
                        (      34.005 eV)
   252     252       --         1.250 au  N             1.00      1 D:xz           10
                        (      34.005 eV)
   253     253       --         1.250 au  N             1.00      1 D:yz           10
                        (      34.005 eV)
   254     254       --         4.013 au  N             1.00      1 F:z3           10
                        (     109.190 eV)
   255     255       --         4.013 au  N             1.00      1 F:z            10
                        (     109.190 eV)
   256     256       --         4.013 au  N             1.00      1 F:xyz          10
                        (     109.190 eV)
   257     257       --         4.013 au  N             1.00      1 F:z2x          10
                        (     109.190 eV)
   258     258       --         4.013 au  N             1.00      1 F:z2y          10
                        (     109.190 eV)
   259     259       --         4.013 au  N             1.00      1 F:x            10
                        (     109.190 eV)
   260     260       --         4.013 au  N             1.00      1 F:y            10
                        (     109.190 eV)
   261     261      2.000     -14.160 au  N             1.00      1 S              11
                        (    -385.319 eV)
   262     262      2.000      -0.678 au  N             1.00      2 S              11
                        (     -18.450 eV)
   263     263       --         0.517 au  N             1.00      3 S              11
                        (      14.073 eV)
   264     264       --         6.872 au  N             1.00      4 S              11
                        (     186.990 eV)
   265     265       --        63.432 au  N             1.00      5 S              11
                        (    1726.082 eV)
   266     266      1.000      -0.260 au  N             1.00      1 P:x            11
                        (      -7.062 eV)
   267     267       --         0.281 au  N             1.00      2 P:x            11
                        (       7.649 eV)
   268     268       --         3.275 au  N             1.00      3 P:x            11
                        (      89.105 eV)
   269     269      1.000      -0.260 au  N             1.00      1 P:y            11
                        (      -7.062 eV)
   270     270       --         0.281 au  N             1.00      2 P:y            11
                        (       7.649 eV)
   271     271       --         3.275 au  N             1.00      3 P:y            11
                        (      89.105 eV)
   272     272      1.000      -0.260 au  N             1.00      1 P:z            11
                        (      -7.062 eV)
   273     273       --         0.281 au  N             1.00      2 P:z            11
                        (       7.649 eV)
   274     274       --         3.275 au  N             1.00      3 P:z            11
                        (      89.105 eV)
   275     275       --         1.250 au  N             1.00      1 D:z2           11
                        (      34.005 eV)
   276     276       --         1.250 au  N             1.00      1 D:x2-y2        11
                        (      34.005 eV)
   277     277       --         1.250 au  N             1.00      1 D:xy           11
                        (      34.005 eV)
   278     278       --         1.250 au  N             1.00      1 D:xz           11
                        (      34.005 eV)
   279     279       --         1.250 au  N             1.00      1 D:yz           11
                        (      34.005 eV)
   280     280       --         4.013 au  N             1.00      1 F:z3           11
                        (     109.190 eV)
   281     281       --         4.013 au  N             1.00      1 F:z            11
                        (     109.190 eV)
   282     282       --         4.013 au  N             1.00      1 F:xyz          11
                        (     109.190 eV)
   283     283       --         4.013 au  N             1.00      1 F:z2x          11
                        (     109.190 eV)
   284     284       --         4.013 au  N             1.00      1 F:z2y          11
                        (     109.190 eV)
   285     285       --         4.013 au  N             1.00      1 F:x            11
                        (     109.190 eV)
   286     286       --         4.013 au  N             1.00      1 F:y            11
                        (     109.190 eV)
   287     287      2.000     -18.941 au  O             1.00      1 S              12
                        (    -515.403 eV)
   288     288      2.000      -0.876 au  O             1.00      2 S              12
                        (     -23.838 eV)
   289     289       --         0.791 au  O             1.00      3 S              12
                        (      21.524 eV)
   290     290       --        13.422 au  O             1.00      4 S              12
                        (     365.226 eV)
   291     291       --       121.561 au  O             1.00      5 S              12
                        (    3307.838 eV)
   292     292      1.333      -0.331 au  O             1.00      1 P:x            12
                        (      -9.020 eV)
   293     293       --         0.347 au  O             1.00      2 P:x            12
                        (       9.437 eV)
   294     294       --         3.820 au  O             1.00      3 P:x            12
                        (     103.939 eV)
   295     295      1.333      -0.331 au  O             1.00      1 P:y            12
                        (      -9.020 eV)
   296     296       --         0.347 au  O             1.00      2 P:y            12
                        (       9.437 eV)
   297     297       --         3.820 au  O             1.00      3 P:y            12
                        (     103.939 eV)
   298     298      1.333      -0.331 au  O             1.00      1 P:z            12
                        (      -9.020 eV)
   299     299       --         0.347 au  O             1.00      2 P:z            12
                        (       9.437 eV)
   300     300       --         3.820 au  O             1.00      3 P:z            12
                        (     103.939 eV)
   301     301       --         1.071 au  O             1.00      1 D:z2           12
                        (      29.134 eV)
   302     302       --         1.071 au  O             1.00      1 D:x2-y2        12
                        (      29.134 eV)
   303     303       --         1.071 au  O             1.00      1 D:xy           12
                        (      29.134 eV)
   304     304       --         1.071 au  O             1.00      1 D:xz           12
                        (      29.134 eV)
   305     305       --         1.071 au  O             1.00      1 D:yz           12
                        (      29.134 eV)
   306     306       --         3.359 au  O             1.00      1 F:z3           12
                        (      91.410 eV)
   307     307       --         3.359 au  O             1.00      1 F:z            12
                        (      91.410 eV)
   308     308       --         3.359 au  O             1.00      1 F:xyz          12
                        (      91.410 eV)
   309     309       --         3.359 au  O             1.00      1 F:z2x          12
                        (      91.410 eV)
   310     310       --         3.359 au  O             1.00      1 F:z2y          12
                        (      91.410 eV)
   311     311       --         3.359 au  O             1.00      1 F:x            12
                        (      91.410 eV)
   312     312       --         3.359 au  O             1.00      1 F:y            12
                        (      91.410 eV)
   313     313      1.000      -0.240 au  H             1.00      1 S              13
                        (      -6.532 eV)
   314     314       --         0.088 au  H             1.00      2 S              13
                        (       2.394 eV)
   315     315       --         1.502 au  H             1.00      3 S              13
                        (      40.869 eV)
   316     316       --         0.406 au  H             1.00      1 P:x            13
                        (      11.051 eV)
   317     317       --         0.406 au  H             1.00      1 P:y            13
                        (      11.051 eV)
   318     318       --         0.406 au  H             1.00      1 P:z            13
                        (      11.051 eV)
   319     319       --         2.569 au  H             1.00      1 D:z2           13
                        (      69.917 eV)
   320     320       --         2.569 au  H             1.00      1 D:x2-y2        13
                        (      69.917 eV)
   321     321       --         2.569 au  H             1.00      1 D:xy           13
                        (      69.917 eV)
   322     322       --         2.569 au  H             1.00      1 D:xz           13
                        (      69.917 eV)
   323     323       --         2.569 au  H             1.00      1 D:yz           13
                        (      69.917 eV)
   324     324      1.000      -0.240 au  H             1.00      1 S              14
                        (      -6.532 eV)
   325     325       --         0.088 au  H             1.00      2 S              14
                        (       2.394 eV)
   326     326       --         1.502 au  H             1.00      3 S              14
                        (      40.869 eV)
   327     327       --         0.406 au  H             1.00      1 P:x            14
                        (      11.051 eV)
   328     328       --         0.406 au  H             1.00      1 P:y            14
                        (      11.051 eV)
   329     329       --         0.406 au  H             1.00      1 P:z            14
                        (      11.051 eV)
   330     330       --         2.569 au  H             1.00      1 D:z2           14
                        (      69.917 eV)
   331     331       --         2.569 au  H             1.00      1 D:x2-y2        14
                        (      69.917 eV)
   332     332       --         2.569 au  H             1.00      1 D:xy           14
                        (      69.917 eV)
   333     333       --         2.569 au  H             1.00      1 D:xz           14
                        (      69.917 eV)
   334     334       --         2.569 au  H             1.00      1 D:yz           14
                        (      69.917 eV)
   335     335      1.000      -0.240 au  H             1.00      1 S              15
                        (      -6.532 eV)
   336     336       --         0.088 au  H             1.00      2 S              15
                        (       2.394 eV)
   337     337       --         1.502 au  H             1.00      3 S              15
                        (      40.869 eV)
   338     338       --         0.406 au  H             1.00      1 P:x            15
                        (      11.051 eV)
   339     339       --         0.406 au  H             1.00      1 P:y            15
                        (      11.051 eV)
   340     340       --         0.406 au  H             1.00      1 P:z            15
                        (      11.051 eV)
   341     341       --         2.569 au  H             1.00      1 D:z2           15
                        (      69.917 eV)
   342     342       --         2.569 au  H             1.00      1 D:x2-y2        15
                        (      69.917 eV)
   343     343       --         2.569 au  H             1.00      1 D:xy           15
                        (      69.917 eV)
   344     344       --         2.569 au  H             1.00      1 D:xz           15
                        (      69.917 eV)
   345     345       --         2.569 au  H             1.00      1 D:yz           15
                        (      69.917 eV)
   346     346      1.000      -0.240 au  H             1.00      1 S              16
                        (      -6.532 eV)
   347     347       --         0.088 au  H             1.00      2 S              16
                        (       2.394 eV)
   348     348       --         1.502 au  H             1.00      3 S              16
                        (      40.869 eV)
   349     349       --         0.406 au  H             1.00      1 P:x            16
                        (      11.051 eV)
   350     350       --         0.406 au  H             1.00      1 P:y            16
                        (      11.051 eV)
   351     351       --         0.406 au  H             1.00      1 P:z            16
                        (      11.051 eV)
   352     352       --         2.569 au  H             1.00      1 D:z2           16
                        (      69.917 eV)
   353     353       --         2.569 au  H             1.00      1 D:x2-y2        16
                        (      69.917 eV)
   354     354       --         2.569 au  H             1.00      1 D:xy           16
                        (      69.917 eV)
   355     355       --         2.569 au  H             1.00      1 D:xz           16
                        (      69.917 eV)
   356     356       --         2.569 au  H             1.00      1 D:yz           16
                        (      69.917 eV)
   357     357      1.000      -0.240 au  H             1.00      1 S              17
                        (      -6.532 eV)
   358     358       --         0.088 au  H             1.00      2 S              17
                        (       2.394 eV)
   359     359       --         1.502 au  H             1.00      3 S              17
                        (      40.869 eV)
   360     360       --         0.406 au  H             1.00      1 P:x            17
                        (      11.051 eV)
   361     361       --         0.406 au  H             1.00      1 P:y            17
                        (      11.051 eV)
   362     362       --         0.406 au  H             1.00      1 P:z            17
                        (      11.051 eV)
   363     363       --         2.569 au  H             1.00      1 D:z2           17
                        (      69.917 eV)
   364     364       --         2.569 au  H             1.00      1 D:x2-y2        17
                        (      69.917 eV)
   365     365       --         2.569 au  H             1.00      1 D:xy           17
                        (      69.917 eV)
   366     366       --         2.569 au  H             1.00      1 D:xz           17
                        (      69.917 eV)
   367     367       --         2.569 au  H             1.00      1 D:yz           17
                        (      69.917 eV)
   368     368      1.000      -0.240 au  H             1.00      1 S              18
                        (      -6.532 eV)
   369     369       --         0.088 au  H             1.00      2 S              18
                        (       2.394 eV)
   370     370       --         1.502 au  H             1.00      3 S              18
                        (      40.869 eV)
   371     371       --         0.406 au  H             1.00      1 P:x            18
                        (      11.051 eV)
   372     372       --         0.406 au  H             1.00      1 P:y            18
                        (      11.051 eV)
   373     373       --         0.406 au  H             1.00      1 P:z            18
                        (      11.051 eV)
   374     374       --         2.569 au  H             1.00      1 D:z2           18
                        (      69.917 eV)
   375     375       --         2.569 au  H             1.00      1 D:x2-y2        18
                        (      69.917 eV)
   376     376       --         2.569 au  H             1.00      1 D:xy           18
                        (      69.917 eV)
   377     377       --         2.569 au  H             1.00      1 D:xz           18
                        (      69.917 eV)
   378     378       --         2.569 au  H             1.00      1 D:yz           18
                        (      69.917 eV)
   379     379      1.000      -0.240 au  H             1.00      1 S              19
                        (      -6.532 eV)
   380     380       --         0.088 au  H             1.00      2 S              19
                        (       2.394 eV)
   381     381       --         1.502 au  H             1.00      3 S              19
                        (      40.869 eV)
   382     382       --         0.406 au  H             1.00      1 P:x            19
                        (      11.051 eV)
   383     383       --         0.406 au  H             1.00      1 P:y            19
                        (      11.051 eV)
   384     384       --         0.406 au  H             1.00      1 P:z            19
                        (      11.051 eV)
   385     385       --         2.569 au  H             1.00      1 D:z2           19
                        (      69.917 eV)
   386     386       --         2.569 au  H             1.00      1 D:x2-y2        19
                        (      69.917 eV)
   387     387       --         2.569 au  H             1.00      1 D:xy           19
                        (      69.917 eV)
   388     388       --         2.569 au  H             1.00      1 D:xz           19
                        (      69.917 eV)
   389     389       --         2.569 au  H             1.00      1 D:yz           19
                        (      69.917 eV)
   390     390      1.000      -0.240 au  H             1.00      1 S              20
                        (      -6.532 eV)
   391     391       --         0.088 au  H             1.00      2 S              20
                        (       2.394 eV)
   392     392       --         1.502 au  H             1.00      3 S              20
                        (      40.869 eV)
   393     393       --         0.406 au  H             1.00      1 P:x            20
                        (      11.051 eV)
   394     394       --         0.406 au  H             1.00      1 P:y            20
                        (      11.051 eV)
   395     395       --         0.406 au  H             1.00      1 P:z            20
                        (      11.051 eV)
   396     396       --         2.569 au  H             1.00      1 D:z2           20
                        (      69.917 eV)
   397     397       --         2.569 au  H             1.00      1 D:x2-y2        20
                        (      69.917 eV)
   398     398       --         2.569 au  H             1.00      1 D:xy           20
                        (      69.917 eV)
   399     399       --         2.569 au  H             1.00      1 D:xz           20
                        (      69.917 eV)
   400     400       --         2.569 au  H             1.00      1 D:yz           20
                        (      69.917 eV)



 ================================
 (Slater-type)  F U N C T I O N S  ***  (Basis and Fit)  ***
 ================================
  

 Atom Type    1  (C)
 ==============

 Valence Basis Sets:  10
 -----------------------
   1 S    7.680000
   1 S    5.000000
   2 S    1.280000
   2 S    2.100000
   2 S    4.600000
   2 P    0.820000
   2 P    1.480000
   2 P    2.940000
   3 D    2.200000
   4 F    3.300000

 Atom Type    2  (N)
 ==============

 Valence Basis Sets:  10
 -----------------------
   1 S    8.740000
   1 S    5.900000
   2 S    5.150000
   2 S    2.500000
   2 S    1.500000
   2 P    3.680000
   2 P    1.880000
   2 P    1.000000
   3 D    2.200000
   4 F    3.300000

 Atom Type    3  (O)
 ==============

 Valence Basis Sets:  10
 -----------------------
   1 S    9.800000
   1 S    6.800000
   2 S    7.580000
   2 S    2.880000
   2 S    1.720000
   2 P    4.080000
   2 P    2.080000
   2 P    1.120000
   3 D    2.000000
   4 F    3.000000

 Atom Type    4  (H)
 ==============

 Valence Basis Sets:   5
 -----------------------
   1 S    0.690000
   1 S    0.920000
   1 S    1.580000
   2 P    1.250000
   3 D    2.500000


 BAS: List of all Elementary Cartesian Basis Functions
 =====================================================

 The numbering in the list below (to the right of the function characteristics) is referred
 to in print-outs of MO eigenvectors and Mulliken populations in the BAS representation
 (as contrasted to the SFO representation).

 Notes:
 1. The functions are characterized by a polynomial prefactor (powers of x,y,z and r) and
    an exponential decay factor alpha.
 2. Since the basis sets are specific for an atom TYPE, the individual functions occur on
    all atoms of that type.
 3. The word 'Core' in the left margin signals that it is a Core Function (CF) : not a
    degree of freedom in the valence set, but only used to ensure orthogonalization of
    the other valence basis functions on the frozen Core Orbitals.


 (power of) X  Y  Z  R     Alpha  on Atom
            ==========     =====     ==========

 C                                    1    2    3    4    5    6    7    8    9
                                  ---------------------------------------------------------------------------
            0  0  0  0     7.680      1   31   61   91  121  151  181  211  241
            0  0  0  0     5.000      2   32   62   92  122  152  182  212  242
            0  0  0  1     1.280      3   33   63   93  123  153  183  213  243
            0  0  0  1     2.100      4   34   64   94  124  154  184  214  244
            0  0  0  1     4.600      5   35   65   95  125  155  185  215  245
            1  0  0  0     0.820      6   36   66   96  126  156  186  216  246
            0  1  0  0     0.820      7   37   67   97  127  157  187  217  247
            0  0  1  0     0.820      8   38   68   98  128  158  188  218  248
            1  0  0  0     1.480      9   39   69   99  129  159  189  219  249
            0  1  0  0     1.480     10   40   70  100  130  160  190  220  250
            0  0  1  0     1.480     11   41   71  101  131  161  191  221  251
            1  0  0  0     2.940     12   42   72  102  132  162  192  222  252
            0  1  0  0     2.940     13   43   73  103  133  163  193  223  253
            0  0  1  0     2.940     14   44   74  104  134  164  194  224  254
            2  0  0  0     2.200     15   45   75  105  135  165  195  225  255
            1  1  0  0     2.200     16   46   76  106  136  166  196  226  256
            1  0  1  0     2.200     17   47   77  107  137  167  197  227  257
            0  2  0  0     2.200     18   48   78  108  138  168  198  228  258
            0  1  1  0     2.200     19   49   79  109  139  169  199  229  259
            0  0  2  0     2.200     20   50   80  110  140  170  200  230  260
            3  0  0  0     3.300     21   51   81  111  141  171  201  231  261
            2  1  0  0     3.300     22   52   82  112  142  172  202  232  262
            2  0  1  0     3.300     23   53   83  113  143  173  203  233  263
            1  2  0  0     3.300     24   54   84  114  144  174  204  234  264
            1  1  1  0     3.300     25   55   85  115  145  175  205  235  265
            1  0  2  0     3.300     26   56   86  116  146  176  206  236  266
            0  3  0  0     3.300     27   57   87  117  147  177  207  237  267
            0  2  1  0     3.300     28   58   88  118  148  178  208  238  268
            0  1  2  0     3.300     29   59   89  119  149  179  209  239  269
            0  0  3  0     3.300     30   60   90  120  150  180  210  240  270

 N                                   10   11
                                  ---------------------------------------------------------------------------
            0  0  0  0     8.740    271  301
            0  0  0  0     5.900    272  302
            0  0  0  1     5.150    273  303
            0  0  0  1     2.500    274  304
            0  0  0  1     1.500    275  305
            1  0  0  0     3.680    276  306
            0  1  0  0     3.680    277  307
            0  0  1  0     3.680    278  308
            1  0  0  0     1.880    279  309
            0  1  0  0     1.880    280  310
            0  0  1  0     1.880    281  311
            1  0  0  0     1.000    282  312
            0  1  0  0     1.000    283  313
            0  0  1  0     1.000    284  314
            2  0  0  0     2.200    285  315
            1  1  0  0     2.200    286  316
            1  0  1  0     2.200    287  317
            0  2  0  0     2.200    288  318
            0  1  1  0     2.200    289  319
            0  0  2  0     2.200    290  320
            3  0  0  0     3.300    291  321
            2  1  0  0     3.300    292  322
            2  0  1  0     3.300    293  323
            1  2  0  0     3.300    294  324
            1  1  1  0     3.300    295  325
            1  0  2  0     3.300    296  326
            0  3  0  0     3.300    297  327
            0  2  1  0     3.300    298  328
            0  1  2  0     3.300    299  329
            0  0  3  0     3.300    300  330

 O                                   12
                                  ---------------------------------------------------------------------------
            0  0  0  0     9.800    331
            0  0  0  0     6.800    332
            0  0  0  1     7.580    333
            0  0  0  1     2.880    334
            0  0  0  1     1.720    335
            1  0  0  0     4.080    336
            0  1  0  0     4.080    337
            0  0  1  0     4.080    338
            1  0  0  0     2.080    339
            0  1  0  0     2.080    340
            0  0  1  0     2.080    341
            1  0  0  0     1.120    342
            0  1  0  0     1.120    343
            0  0  1  0     1.120    344
            2  0  0  0     2.000    345
            1  1  0  0     2.000    346
            1  0  1  0     2.000    347
            0  2  0  0     2.000    348
            0  1  1  0     2.000    349
            0  0  2  0     2.000    350
            3  0  0  0     3.000    351
            2  1  0  0     3.000    352
            2  0  1  0     3.000    353
            1  2  0  0     3.000    354
            1  1  1  0     3.000    355
            1  0  2  0     3.000    356
            0  3  0  0     3.000    357
            0  2  1  0     3.000    358
            0  1  2  0     3.000    359
            0  0  3  0     3.000    360

 H                                   13   14   15   16   17   18   19   20
                                  ---------------------------------------------------------------------------
            0  0  0  0     0.690    361  373  385  397  409  421  433  445
            0  0  0  0     0.920    362  374  386  398  410  422  434  446
            0  0  0  0     1.580    363  375  387  399  411  423  435  447
            1  0  0  0     1.250    364  376  388  400  412  424  436  448
            0  1  0  0     1.250    365  377  389  401  413  425  437  449
            0  0  1  0     1.250    366  378  390  402  414  426  438  450
            2  0  0  0     2.500    367  379  391  403  415  427  439  451
            1  1  0  0     2.500    368  380  392  404  416  428  440  452
            1  0  1  0     2.500    369  381  393  405  417  429  441  453
            0  2  0  0     2.500    370  382  394  406  418  430  442  454
            0  1  1  0     2.500    371  383  395  407  419  431  443  455
            0  0  2  0     2.500    372  384  396  408  420  432  444  456

 Total number of charge fitting functions (nprimf)      1408
 Total number of Cartesian basis functions (naos)        456
 Total number of Cartesian core functions  (ncos)          0

 ***************************************************************************************************



                                              ***********************
                                              *  T E C H N I C A L  *
                                              ***********************
  



 =============================================================
 P A R A L L E L I Z A T I O N  and  V E C T O R I Z A T I O N
 =============================================================
  
 Nr of parallel processes:                                1
 Maximum vector length in NumInt loops:                 128



 =====================
 S C F   U P D A T E S
 =====================
  
 Max. nr. of cycles:                               200
 Convergence criterion:                              0.0000010000
   secondary criterion:                              0.0010000000

 Mix parameter (when DIIS does not apply):           0.2000000000
 Mixed ADIIS+SDIIS will be used                  
    Max number of expansion vectors:                10
    Pure ADIIS when Max([F,P]) is above              0.1000000000
    Pure SDIIS when Max([F,P]) is below              0.0010000000
 Automatic ElectronSmearing (in case of problematic SCF convergence) disabled



 =================
 P R E C I S I O N  ***  (General: NumInt, NeglectFunctionTails, ...)  ***
 =================
  

 NumInt:           Target precision:                 4.0000000000
 -------           Initial precision:                4.0000000000
                   Min. precision (optimization):    4.0000000000

 Neglect Functions:          Basis functions:        0.1000000000E-05
 ------------------          Fit functions:          0.1000000000E-05



 ===========================
 L I N E A R   S C A L I N G
 ===========================
  

 Cut-off radii density fit:                        0.1000000000E-07
 Overlap cut-off criterion AO matrix elements:     0.1000000000E-05
 Cut-offs for Coulomb potential and fitted density:0.1000000000E-07
 Cut-off criterion for Coulomb multipole terms:    0.1000000000E-07
[...]
                                   11.89%     1 P:y            -5.239  0.67     7 C
                                  -11.57%     2 P:z             4.589  0.00     9 C
                                   10.54%     1 P:y            -5.239  0.67     5 C
                                   10.10%     1 P:y            -5.239  0.67     2 C
                                    9.96%     1 P:y            -5.239  0.67     4 C
                                    9.54%     1 S              -6.532  1.00    20 H
                                    8.35%     1 S              -6.532  1.00    18 H
                                    8.31%     1 P:y            -5.239  0.67     6 C
                                    7.69%     1 S              -6.532  1.00    13 H
                                    7.43%     2 S               2.394  0.00    20 H
                                   -6.88%     2 P:y             4.589  0.00     2 C
                                    6.49%     2 S               2.394  0.00    18 H
                                   -4.80%     2 P:y             4.589  0.00     6 C
                                   -4.50%     2 P:y             4.589  0.00     4 C
                                    3.28%     1 S              -6.532  1.00    17 H
                                   -3.24%     2 P:y             4.589  0.00     3 C
                                    2.70%     2 S               2.394  0.00    17 H
                                    2.69%     2 P:y             4.589  0.00     1 C
                                    2.57%     1 P:y            -5.239  0.67     1 C
                                   -2.50%     2 P:z             4.589  0.00     2 C
                                    2.30%     1 S              -6.532  1.00    14 H
                                    2.27%     1 P:z            -5.239  0.67     8 C
                                    2.26%     1 P:z            -5.239  0.67     9 C
                                    2.03%     2 S               2.394  0.00    13 H
                                    2.02%     2 S               2.394  0.00    14 H
                                   -1.64%     2 P:x             4.589  0.00     4 C
                                    1.32%     2 P:z             4.589  0.00     8 C
                                   -1.20%     2 P:z             4.589  0.00     7 C
                                    1.14%     3 S              40.869  0.00    20 H
                                   -1.06%     2 P:y             4.589  0.00     5 C
                                    1.04%     3 S              40.869  0.00    18 H
                                    1.01%     2 P:y             4.589  0.00     7 C
       2.035  0.00    56 A         23.94%     1 S              -6.532  1.00    20 H
                                   18.45%     1 S              -6.532  1.00    17 H
                                  -14.94%     2 P:x             4.589  0.00     9 C
                                   14.64%     1 S              -6.532  1.00    19 H
                                   11.18%     1 S              -6.532  1.00    16 H
                                    9.29%     2 S               2.394  0.00    20 H
                                    7.08%     1 P:x            -5.239  0.67     9 C
                                   -6.72%     2 P:x             4.589  0.00     6 C
                                    6.52%     2 S               2.394  0.00    17 H
                                   -6.14%     2 P:z             4.589  0.00     7 C
                                    5.69%     1 S              -6.532  1.00    15 H
                                   -5.45%     2 P:z             4.589  0.00     9 C
                                    4.87%     1 S              -6.532  1.00    14 H
                                   -4.27%     2 P:z             4.589  0.00     6 C
                                    3.56%     2 S               2.394  0.00    19 H
                                    3.43%     1 P:z            -5.239  0.67     7 C
                                    3.36%     1 P:y            -5.239  0.67     3 C
                                    2.88%     1 P:y            -5.239  0.67     4 C
                                   -2.63%     2 P:y             4.589  0.00     4 C
                                   -2.61%     2 P:x             4.589  0.00     7 C
                                    2.40%     1 P:z            -5.239  0.67     6 C
                                   -2.33%     2 P:z             4.589  0.00     4 C
                                    2.25%     1 P:y            -5.239  0.67     2 C
                                    2.17%     3 S              40.869  0.00    20 H
                                    2.16%     2 S               2.394  0.00    15 H
                                    1.64%     1 S              -6.532  1.00    13 H
                                    1.61%     2 P:x             4.589  0.00     1 C
                                    1.60%     2 S             -13.620  2.00     7 C
                                    1.57%     1 P:z            -5.239  0.67     2 C
                                    1.57%     2 P:y             4.589  0.00     8 C
                                   -1.51%     2 P:x             4.589  0.00     5 C
                                   -1.50%     3 S              10.158  0.00     7 C
                                    1.44%     3 S              40.869  0.00    16 H
                                    1.41%     3 S              40.869  0.00    17 H
                                    1.40%     1 P:y            -5.239  0.67     5 C
                                    1.26%     1 P:z            -5.239  0.67     8 C
                                   -1.20%     2 P:y             4.589  0.00     2 C
                                    1.15%     1 P:x            -5.239  0.67     5 C
                                    1.12%     1 P:y            -5.239  0.67     7 C
                                   -1.11%     1 P:z            -5.239  0.67     4 C
                                    1.08%     2 P:z             4.589  0.00     8 C
                                    1.05%     1 P:x            -5.239  0.67     4 C
                                    1.05%     2 S               2.394  0.00    16 H



 =======================================================================
 Electrostatic potential at the Nuclei due to electrons and other nuclei
 =======================================================================
  
         Atom                  Potential
         ----                  ---------
     1)   C                  14.72419225
     2)   C                  14.72494465
     3)   C                  14.75069834
     4)   C                  14.75551664
     5)   C                  14.75431490
     6)   C                  14.75561754
     7)   C                  14.75107868
     8)   N                  18.30831431
     9)   N                  18.39485581
    10)   C                  14.69990257
    11)   C                  14.78305882
    12)   O                  22.43788472
    13)   H                   1.07268221
    14)   H                   1.07764782
    15)   H                   1.07833114
    16)   H                   1.07760503
    17)   H                   1.07330788
    18)   H                   1.09603343
    19)   H                   1.10790918
    20)   H                   1.09497458
 Mulliken charges used for AMS results%charges...


    =====================
     CALCULATION RESULTS
    =====================

Energy (hartree)            -4.60890841


--------------
Atomic charges
--------------
  Index   Atom    Charge
      1      C    0.0778
      2      C   -0.0076
      3      C    0.2194
      4      C    0.2267
      5      C    0.2251
      6      C    0.2242
      7      C    0.2333
      8      N   -0.0076
      9      N   -0.1919
     10      C    0.4381
     11      C    0.5622
     12      O   -0.5181
     13      H   -0.1757
     14      H   -0.2037
     15      H   -0.1971
     16      H   -0.2034
     17      H   -0.1826
     18      H   -0.1632
     19      H   -0.1937
     20      H   -0.1622


Dipole moment vector    (Debye):     7.71754659   -1.54189383   -0.05231836
              magnitude (Debye):     7.87024136


-----------------------
Molecular orbitals info
-----------------------
n orbitals:              400
n spin:                    1

Note: only printing virtual orbitals with
      energy smaller than HOMO + 100. eV

HOMO (eV):              -5.5079
LUMO (eV):              -3.4057
HOMO-LUMO gap (eV):      2.1022

   Index   Energy (eV)    Occupation
     253       94.3103         0.000       
     252       94.1340         0.000       
     251       93.7782         0.000       
     250       92.9801         0.000       
     249       92.6258         0.000       
     248       92.3336         0.000       
     247       91.9856         0.000       
     246       91.8747         0.000       
     245       91.3863         0.000       
     244       90.1558         0.000       
     243       89.5551         0.000       
     242       88.9369         0.000       
     241       87.3620         0.000       
     240       87.2064         0.000       
     239       86.0771         0.000       
     238       85.8100         0.000       
     237       85.1786         0.000       
     236       84.9560         0.000       
     235       83.9726         0.000       
     234       83.5734         0.000       
     233       82.4041         0.000       
     232       81.5059         0.000       
     231       80.9162         0.000       
     230       80.8661         0.000       
     229       80.3120         0.000       
     228       79.5109         0.000       
     227       79.3147         0.000       
     226       78.9552         0.000       
     225       78.6247         0.000       
     224       78.1239         0.000       
     223       77.6828         0.000       
     222       77.4487         0.000       
     221       76.6374         0.000       
     220       76.1291         0.000       
     219       75.5390         0.000       
     218       75.3958         0.000       
     217       74.7240         0.000       
     216       73.8793         0.000       
     215       73.2265         0.000       
     214       72.9359         0.000       
     213       72.9054         0.000       
     212       71.7296         0.000       
     211       70.9495         0.000       
     210       70.5392         0.000       
     209       69.4331         0.000       
     208       68.8043         0.000       
     207       68.2721         0.000       
     206       67.5813         0.000       
     205       67.2763         0.000       
     204       66.1900         0.000       
     203       65.7318         0.000       
     202       65.1693         0.000       
     201       64.5161         0.000       
     200       63.9671         0.000       
     199       63.0670         0.000       
     198       62.5580         0.000       
     197       62.3509         0.000       
     196       61.5265         0.000       
     195       61.2943         0.000       
     194       60.4022         0.000       
     193       60.2192         0.000       
     192       60.0148         0.000       
     191       59.4211         0.000       
     190       58.8219         0.000       
     189       57.1313         0.000       
     188       55.9680         0.000       
     187       54.9554         0.000       
     186       54.6082         0.000       
     185       54.3378         0.000       
     184       54.1025         0.000       
     183       53.2802         0.000       
     182       52.9743         0.000       
     181       52.4214         0.000       
     180       51.6312         0.000       
     179       51.1579         0.000       
     178       50.9667         0.000       
     177       49.8982         0.000       
     176       49.4682         0.000       
     175       49.3373         0.000       
     174       49.1858         0.000       
     173       48.4651         0.000       
     172       48.1153         0.000       
     171       47.6245         0.000       
     170       47.0788         0.000       
     169       46.3460         0.000       
     168       45.3076         0.000       
     167       44.7853         0.000       
     166       44.2341         0.000       
     165       42.5667         0.000       
     164       42.1848         0.000       
     163       41.7824         0.000       
     162       41.2205         0.000       
     161       41.0402         0.000       
     160       40.7198         0.000       
     159       39.8243         0.000       
     158       39.4190         0.000       
     157       39.2555         0.000       
     156       38.5944         0.000       
     155       38.4753         0.000       
     154       37.7923         0.000       
     153       37.3124         0.000       
     152       36.7637         0.000       
     151       36.0485         0.000       
     150       35.7347         0.000       
     149       35.5901         0.000       
     148       35.5004         0.000       
     147       34.9807         0.000       
     146       34.4090         0.000       
     145       33.9473         0.000       
     144       33.7063         0.000       
     143       33.3667         0.000       
     142       32.8262         0.000       
     141       32.0554         0.000       
     140       31.7999         0.000       
     139       30.9888         0.000       
     138       30.5900         0.000       
     137       30.0548         0.000       
     136       29.9365         0.000       
     135       29.1788         0.000       
     134       28.6355         0.000       
     133       28.1768         0.000       
     132       27.8692         0.000       
     131       27.5256         0.000       
     130       27.2905         0.000       
     129       27.0555         0.000       
     128       26.8286         0.000       
     127       26.7061         0.000       
     126       26.0464         0.000       
     125       25.1647         0.000       
     124       24.9713         0.000       
     123       24.6159         0.000       
     122       24.1364         0.000       
     121       23.4009         0.000       
     120       23.0589         0.000       
     119       22.9102         0.000       
     118       22.3829         0.000       
     117       21.5864         0.000       
     116       20.8119         0.000       
     115       20.5355         0.000       
     114       20.5015         0.000       
     113       19.7475         0.000       
     112       19.4779         0.000       
     111       19.2699         0.000       
     110       18.7644         0.000       
     109       18.3384         0.000       
     108       17.7539         0.000       
     107       17.0629         0.000       
     106       16.9879         0.000       
     105       16.6991         0.000       
     104       16.2164         0.000       
     103       15.9677         0.000       
     102       15.7563         0.000       
     101       14.8871         0.000       
     100       14.7244         0.000       
      99       14.1616         0.000       
      98       13.6187         0.000       
      97       13.0364         0.000       
      96       12.9372         0.000       
      95       12.4855         0.000       
      94       12.0852         0.000       
      93       11.8564         0.000       
      92       11.4545         0.000       
      91       11.2662         0.000       
      90       10.8668         0.000       
      89       10.6140         0.000       
      88       10.4889         0.000       
      87        9.8467         0.000       
      86        9.2384         0.000       
      85        9.2270         0.000       
      84        8.9605         0.000       
      83        8.8397         0.000       
      82        8.5995         0.000       
      81        8.3818         0.000       
      80        8.2060         0.000       
      79        7.9028         0.000       
      78        7.8145         0.000       
      77        7.5888         0.000       
      76        7.4517         0.000       
      75        7.4075         0.000       
      74        7.1492         0.000       
      73        6.4885         0.000       
      72        6.2232         0.000       
      71        6.0889         0.000       
      70        5.5923         0.000       
      69        5.1876         0.000       
      68        4.9369         0.000       
      67        4.6629         0.000       
      66        4.6128         0.000       
      65        4.5175         0.000       
      64        4.4415         0.000       
      63        4.1546         0.000       
      62        4.0866         0.000       
      61        3.7146         0.000       
      60        3.2926         0.000       
      59        3.0901         0.000       
      58        2.9522         0.000       
      57        2.5482         0.000       
      56        2.0346         0.000       
      55        1.8005         0.000       
      54        1.5543         0.000       
      53        1.3560         0.000       
      52        1.0729         0.000       
      51        0.5358         0.000       
      50        0.1336         0.000       
      49        0.0564         0.000       
      48       -0.1825         0.000       
      47       -0.5415         0.000       
      46       -0.9936         0.000       
      45       -1.9686         0.000       
      44       -2.0638         0.000       
      43       -3.4057         0.000 < LUMO
      42       -5.5079         2.000 < HOMO
      41       -5.7164         2.000       
      40       -6.4776         2.000       
      39       -7.1429         2.000       
      38       -7.7216         2.000       
      37       -8.5341         2.000       
      36       -9.1939         2.000       
      35       -9.4344         2.000       
      34       -9.5347         2.000       
      33       -9.7212         2.000       
      32      -10.0661         2.000       
      31      -10.4245         2.000       
      30      -11.1094         2.000       
      29      -11.3059         2.000       
      28      -11.4383         2.000       
      27      -11.6842         2.000       
      26      -11.9905         2.000       
      25      -12.1312         2.000       
      24      -12.5495         2.000       
      23      -14.0500         2.000       
      22      -15.4871         2.000       
      21      -15.7429         2.000       
      20      -16.4426         2.000       
      19      -18.2109         2.000       
      18      -19.2779         2.000       
      17      -19.5489         2.000       
      16      -21.4820         2.000       
      15      -22.2987         2.000       
      14      -25.2880         2.000       
      13      -26.6429         2.000       
      12     -270.0964         2.000       
      11     -270.9427         2.000       
      10     -270.9476         2.000       
       9     -270.9833         2.000       
       8     -271.0781         2.000       
       7     -271.0881         2.000       
       6     -271.7164         2.000       
       5     -271.9799         2.000       
       4     -272.4618         2.000       
       3     -382.4158         2.000       
       2     -384.6578         2.000       
       1     -510.4787         2.000       

AMS application finished. Exiting.
NORMAL TERMINATION
     Total cpu time:      67.61
  Total system time:       0.34
 Total elapsed time:      68.37
NORMAL TERMINATION
