srun: Job 662083 step creation temporarily disabled, retrying (Requested nodes are busy)
srun: Job 662083 step creation still disabled, retrying (Requested nodes are busy)
srun: Job 662083 step creation still disabled, retrying (Requested nodes are busy)
srun: Step created for StepId=662083.37

 *******************************************************************************
 *                                                                             *
 *  --------------------------------                                           *
 *   Amsterdam Modeling Suite (AMS)              2026.103                      *
 *  --------------------------------                                           *
 *                                               r260501 2026-05-01 873454b5   *
 *                                                                             *
 *                                                                             *
 *                              =================                              *
 *                              |               |                              *
 *                              |     A M S     |                              *
 *                              |               |                              *
 *                              =================                              *
 *                                                                             *
 *                                                                             *
 *   Online information and documentation:  https://www.scm.com/support/       *
 *   E-mail:  support@scm.com   info@scm.com                                   *
 *                                                                             *
 *   Scientific publications using AMS results must be properly referenced     *
 *   See the User Manuals (or the web site) for recommended citations          *
 *   The terms and conditions of the End User License Agreement apply to       *
 *   the use of AMS, https://www.scm.com/license-terms/                        *
 *                                                                             *
 **********************  x86_64_linux_intel / intelmpi  ************************
 
 Licensed to: Jong-June Jeon / University of Seoul 2026-06-02 13:44:15
 SCM User ID: u30731
  
 AMS 2026.103  RunTime: Jun03-2026 00:14:59  ShM Nodes: 1  Procs: 1

 AMS jobname: c5_fragB_opt
 AMS jobid  : 104443481

 Start   directory: /gpfs/home1/yeseo1ee/projects/eda-asm-prediction/ADF_800/adf_outputs/batch_000/dipolar_000238/
 Results directory: /gpfs/home1/yeseo1ee/projects/eda-asm-prediction/ADF_800/adf_outputs/batch_000/dipolar_000238/c5_fragB_opt.results/
 Scratch directory: /tmp/amstmp_c5_fragB_opt_kid0.104443481/

 RNG seed: 1458148673 513683621 840885038 1437903218 -356392946 395369106 428167028 -1860115026



                      ************************************************************************
                      *  ADF 2026.103  RunTime: Jun03-2026 00:14:59  ShM Nodes: 1  Procs: 1  *
                      ************************************************************************
  

       ***************************
       *  GEOMETRY OPTIMIZATION  *
       ***************************

Optimization Method                    Quasi Newton
Optimization Coordinates               Delocalized Coordinates
Optimize lattice                       F
 
 ------------------------------------------------------
 Convergence criteria (Hartree,Angstrom)
 ------------------------------------------------------
 Maximum gradient               0.000100000000
 Maximum rms gradient           0.000066666667
 Maximum step allowed           0.010000000000
 Maximum rms step allowed       0.006666666667
 Maximum energy change allowe   0.000200000000
 Maximum stress energy allowe   0.000500000000
 
Initial model Hessian                  Automatic Hessian
 
------------------------------------
Quasi-Newton Optimizer Parameters
------------------------------------
Hessian Update Method                  BFGS
Maximum number of steps                  200
First GDIIS cycle                          0
Maximum GDIIS vectors                      0
Trust radius (bohr)                        0.200000
Trust radius varies                        T
Constraints converged at all steps         T
Use projector                              T
 
 Rigid motions settings for: old optimizer
 Atomic rotations (x,y,z):     T T T
 Atomic translations (x,y,z):  T T T
 Tolerance:                  1.000000000000000E-006

--------
Geometry
--------
Formula: C9H8N2O
Atoms
  Index Symbol   x (angstrom)   y (angstrom)   z (angstrom)
      1      C     0.58578000    -0.40707000    -0.52571000
      2      C     2.01018000    -0.46804000    -0.68070000
      3      C     2.59937000    -0.01969000    -1.88056000
      4      C     3.98364000    -0.07164000    -2.02468000
      5      C     4.78068000    -0.56469000    -0.98461000
      6      C     4.19600000    -1.00630000     0.20762000
      7      C     2.81350000    -0.95146000     0.37015000
      8      N    -0.48631000    -0.71717000    -0.97676000
      9      N    -1.72014000    -0.40582000    -0.99081000
     10      C    -2.65452000    -1.42633000    -0.76733000
     11      C    -2.15535000    -2.83813000    -0.62639000
     12      O    -3.83428000    -1.11510000    -0.68805000
     13      H     1.96604000     0.36126000    -2.68335000
     14      H     4.44426000     0.27177000    -2.95324000
     15      H     5.86568000    -0.60369000    -1.10448000
     16      H     4.82157000    -1.39080000     1.01563000
     17      H     2.34640000    -1.28608000     1.29732000
     18      H    -1.58370000    -3.13659000    -1.51860000
     19      H    -3.00642000    -3.51414000    -0.48133000
     20      H    -1.47426000    -2.90548000     0.23762000

Total System Charge              0.00000


----------------
ADF Engine Input
----------------
 
   Basis
     Type TZ2P
     Core None
   End
   XC
     GGA BLYP
     Dispersion GRIMME3 BJDAMP
   End
   Symmetry NOSYM
   NumericalQuality Normal
   Unrestricted No
   SCF
     Iterations 200
     Converge 1.0e-6
   End
   Save TAPE21
 

 Title: *** (NO TITLE) ***

 Using automatic Hessian for delocalized coordinates.
 *** GO1_GOStep1 ***

 Energy gradients wrt nuclear displacements
 ==========================================

     Atom      Cartesian (a.u./angstrom)
                 X         Y         Z
 ----------------------------------------
     1 C    -0.047310  0.041267  0.020181
     2 C     0.021437 -0.005432  0.000217
     3 C    -0.004486 -0.004465  0.007879
     4 C    -0.001849 -0.002955  0.006655
     5 C    -0.010945  0.000810  0.001040
     6 C    -0.003687  0.002832 -0.005408
     7 C    -0.002451  0.001708 -0.007278
     8 N    -0.004450 -0.051862 -0.057343
     9 N     0.031590  0.006927  0.033936
    10 C     0.009542 -0.012732  0.008064
    11 C    -0.007191  0.020736 -0.004505
    12 O     0.016680  0.002654 -0.002865
    13 H    -0.003041  0.002034 -0.003907
    14 H     0.001475  0.001768 -0.004095
    15 H     0.004931 -0.000169 -0.000578
    16 H     0.002403 -0.001745  0.003654
    17 H    -0.001387 -0.002214  0.004088
    18 H     0.001719  0.000843 -0.003279
    19 H    -0.005063 -0.003023  0.000527
    20 H     0.002082  0.003019  0.003017
 ----------------------------------------
 
----------------------------------------------------------------------
Geometry Convergence after Step   1       (Hartree/Angstrom,Angstrom)
----------------------------------------------------------------------
current energy                               -4.60890841 Hartree
energy change                      -4.60890841     0.00020000    F
constrained gradient max            0.05738203     0.00010000    F
constrained gradient rms            0.01566977     0.00006667    F
gradient max                        0.05738203
gradient rms                        0.01566977
cart. step max                      0.17405354     0.01000000    F
cart. step rms                      0.05955654     0.00666667    F
 

--------
Geometry
--------
Formula: C9H8N2O
Atoms
  Index Symbol   x (angstrom)   y (angstrom)   z (angstrom)
      1      C     0.57721787    -0.32789088    -0.46596743
      2      C     1.99346621    -0.43459790    -0.65599455
      3      C     2.58627716     0.01044751    -1.86100843
      4      C     3.96667022    -0.08699638    -2.03171890
      5      C     4.76738408    -0.62155011    -1.01363175
      6      C     4.18605859    -1.05655595     0.18397126
      7      C     2.80753807    -0.95566059     0.37299440
      8      N    -0.53214415    -0.58576593    -0.88404122
      9      N    -1.79799667    -0.36291815    -1.01211338
     10      C    -2.68028948    -1.44995416    -0.83622823
     11      C    -2.08379081    -2.82300007    -0.59918562
     12      O    -3.89164630    -1.24216283    -0.86210354
     13      H     1.95611833     0.42279871    -2.64697067
     14      H     4.42107239     0.25172894    -2.96232126
     15      H     5.84558659    -0.69621549    -1.15349206
     16      H     4.81085964    -1.47056104     0.97460367
     17      H     2.34872122    -1.28270172     1.30417728
     18      H    -1.41725661    -3.10641609    -1.42599181
     19      H    -2.88831799    -3.55733479    -0.50240808
     20      H    -1.47740835    -2.81988309     0.31917033

Total System Charge              0.00000

 *** GO1_GOStep2 ***

 Energy gradients wrt nuclear displacements
 ==========================================

     Atom      Cartesian (a.u./angstrom)
                 X         Y         Z
 ----------------------------------------
     1 C     0.030667  0.038354  0.031667
     2 C     0.005565 -0.006613 -0.000245
     3 C    -0.001212 -0.000933  0.002814
     4 C     0.000519 -0.000900  0.001404
     5 C    -0.004016  0.000578  0.000099
     6 C    -0.000517  0.000967 -0.001321
     7 C    -0.001289  0.000168 -0.002489
     8 N    -0.009272 -0.041950 -0.044542
     9 N    -0.024050  0.002215  0.015029
    10 C     0.017604 -0.002435 -0.001361
    11 C    -0.005675  0.010465 -0.002320
    12 O    -0.011647  0.001474  0.001198
    13 H    -0.001154  0.000795 -0.001277
    14 H     0.000927  0.000612 -0.001597
    15 H     0.002113 -0.000128 -0.000356
    16 H     0.001238 -0.000767  0.001258
    17 H    -0.000590 -0.001041  0.001336
    18 H     0.001087  0.000210 -0.001094
    19 H    -0.001394 -0.001749  0.000318
    20 H     0.001096  0.000678  0.001480
 ----------------------------------------

 dE(predicted):    -0.74879E-02, dE(actual):    -0.79054E-02, Trust radius:    0.400000, all in a.u.
 
----------------------------------------------------------------------
Geometry Convergence after Step   2       (Hartree/Angstrom,Angstrom)
----------------------------------------------------------------------
current energy                               -4.61681379 Hartree
energy change                      -0.00790539     0.00020000    F
constrained gradient max            0.04456743     0.00010000    F
constrained gradient rms            0.01211265     0.00006667    F
gradient max                        0.04456743
gradient rms                        0.01211265
cart. step max                      0.21723551     0.01000000    F
cart. step rms                      0.06853392     0.00666667    F
 

--------
Geometry
--------
Formula: C9H8N2O
Atoms
  Index Symbol   x (angstrom)   y (angstrom)   z (angstrom)
      1      C     0.54999826    -0.35094241    -0.47381467
      2      C     1.96306542    -0.46112373    -0.67296893
      3      C     2.56871177     0.04616691    -1.84960562
      4      C     3.95036926    -0.04433358    -2.01615749
      5      C     4.74636794    -0.63542164    -1.02479246
      6      C     4.15528296    -1.13014787     0.14502998
      7      C     2.77580834    -1.03253914     0.33279801
      8      N    -0.55837719    -0.52329705    -0.87778777
      9      N    -1.80808014    -0.34162820    -1.11387400
     10      C    -2.65879103    -1.45621298    -0.90144384
     11      C    -2.02010153    -2.78242490    -0.50033668
     12      O    -3.86388974    -1.32547064    -1.07933905
     13      H     1.94692798     0.50251528    -2.61499116
     14      H     4.40951489     0.34417099    -2.92248299
     15      H     5.82339491    -0.70322559    -1.16121076
     16      H     4.77324075    -1.58157453     0.91777864
     17      H     2.31402006    -1.39460146     1.24737020
     18      H    -1.26688005    -3.09348755    -1.23595156
     19      H    -2.79592257    -3.54603569    -0.42274797
     20      H    -1.50654029    -2.68557624     0.46626811

Total System Charge              0.00000

 *** GO1_GOStep3 ***

 Energy gradients wrt nuclear displacements
 ==========================================

     Atom      Cartesian (a.u./angstrom)
                 X         Y         Z
 ----------------------------------------
     1 C    -0.003334  0.018813  0.017439
     2 C    -0.004860 -0.006299 -0.004780
     3 C     0.001935  0.001805 -0.000820
     4 C     0.000574  0.000684 -0.001626
     5 C     0.000761  0.000115  0.000017
     6 C     0.000774 -0.000946  0.000543
     7 C    -0.000319 -0.000798  0.001049
     8 N     0.021536 -0.023097 -0.016898
     9 N    -0.021407  0.003289  0.002548
    10 C     0.010887  0.005699  0.009872
    11 C    -0.003147  0.001518 -0.004674
    12 O    -0.005430 -0.000387 -0.003310
    13 H     0.000255 -0.000144  0.000685
    14 H     0.000197 -0.000158  0.000177
    15 H    -0.000152  0.000148  0.000031
    16 H    -0.000048  0.000309 -0.000549
    17 H     0.000021  0.000343 -0.000353
    18 H     0.000632 -0.000558  0.000485
    19 H     0.000981 -0.000556  0.000163
    20 H     0.000143  0.000219  0.000001
 ----------------------------------------

 dE(predicted):    -0.36793E-02, dE(actual):    -0.41223E-02, Trust radius:    0.400000, all in a.u.
 
----------------------------------------------------------------------
Geometry Convergence after Step   3       (Hartree/Angstrom,Angstrom)
----------------------------------------------------------------------
current energy                               -4.62093605 Hartree
energy change                      -0.00412225     0.00020000    F
constrained gradient max            0.02309936     0.00010000    F
constrained gradient rms            0.00689874     0.00006667    F
gradient max                        0.02309936
gradient rms                        0.00689874
cart. step max                      0.21087072     0.01000000    F
cart. step rms                      0.07680409     0.00666667    F
 

--------
Geometry
--------
Formula: C9H8N2O
Atoms
  Index Symbol   x (angstrom)   y (angstrom)   z (angstrom)
      1      C     0.52094574    -0.37388854    -0.51177481
      2      C     1.93734538    -0.46601852    -0.68605321
      3      C     2.55496068     0.09895012    -1.82903892
      4      C     3.93708574     0.01011684    -1.98687461
      5      C     4.72203956    -0.64841021    -1.02957142
      6      C     4.11701994    -1.20899741     0.10279536
      7      C     2.73720497    -1.11115506     0.28562200
      8      N    -0.58983381    -0.45079410    -0.90170965
      9      N    -1.81456685    -0.33614924    -1.21728678
     10      C    -2.61681297    -1.50193026    -1.02566429
     11      C    -1.95515503    -2.73459707    -0.39657579
     12      O    -3.81357938    -1.43740388    -1.25016171
     13      H     1.94341348     0.59970621    -2.57367548
     14      H     4.40450296     0.45015470    -2.86363495
     15      H     5.79770806    -0.72078564    -1.16488483
     16      H     4.72244790    -1.72028187     0.84652044
     17      H     2.26463747    -1.53464394     1.16671345
     18      H    -1.13338744    -3.09861275    -1.02508084
     19      H    -2.70664322    -3.51638690    -0.28492392
     20      H    -1.53121316    -2.49406246     0.58699996

Total System Charge              0.00000

 *** GO1_GOStep4 ***

 Energy gradients wrt nuclear displacements
 ==========================================

     Atom      Cartesian (a.u./angstrom)
                 X         Y         Z
 ----------------------------------------
     1 C    -0.022237  0.005382  0.002474
     2 C    -0.003650 -0.001480 -0.003299
     3 C     0.001268  0.000717 -0.002717
     4 C    -0.000372  0.001292 -0.001559
     5 C     0.003017 -0.000347 -0.000647
     6 C     0.000729 -0.000780  0.002241
     7 C     0.000951 -0.001704  0.001840
     8 N     0.018182 -0.005369  0.001766
     9 N    -0.003443  0.004854  0.005803
    10 C     0.005313 -0.004595 -0.026006
    11 C    -0.001883 -0.000819  0.008870
    12 O     0.002829  0.003447  0.010616
    13 H     0.000722 -0.000834  0.001051
    14 H    -0.000738 -0.000518  0.001449
    15 H    -0.001525 -0.000077  0.000026
    16 H    -0.000792  0.000465 -0.001335
    17 H     0.000496  0.000296 -0.001474
    18 H    -0.001150  0.001717  0.000115
    19 H     0.001605  0.000770  0.000609
    20 H     0.000677 -0.002417  0.000176
 ----------------------------------------

 dE(predicted):    -0.22226E-02, dE(actual):    -0.12969E-02, Trust radius:    0.400000, all in a.u.
 
----------------------------------------------------------------------
Geometry Convergence after Step   4       (Hartree/Angstrom,Angstrom)
----------------------------------------------------------------------
current energy                               -4.62223299 Hartree
energy change                      -0.00129694     0.00020000    F
constrained gradient max            0.02608802     0.00010000    F
constrained gradient rms            0.00576220     0.00006667    F
gradient max                        0.02608802
gradient rms                        0.00576220
cart. step max                      0.17818511     0.01000000    F
cart. step rms                      0.05532144     0.00666667    F
 

--------
Geometry
--------
Formula: C9H8N2O
Atoms
  Index Symbol   x (angstrom)   y (angstrom)   z (angstrom)
      1      C     0.52588925    -0.41468996    -0.56459747
      2      C     1.94592941    -0.48360681    -0.71058540
      3      C     2.56846357     0.13200482    -1.82223777
      4      C     3.95235984     0.05927596    -1.96818499
      5      C     4.73211087    -0.63346109    -1.03164264
      6      C     4.11961120    -1.24689733     0.06831758
      7      C     2.73759632    -1.16760512     0.23973278
      8      N    -0.59827195    -0.43709476    -0.93253005
      9      N    -1.81111260    -0.35800877    -1.27365871
     10      C    -2.62704829    -1.51109250    -1.01933220
     11      C    -1.97955991    -2.70509433    -0.30157863
     12      O    -3.77499416    -1.52555516    -1.42563830
     13      H     1.96070969     0.65925846    -2.55235056
     14      H     4.42491060     0.54041744    -2.82066003
     15      H     5.80979436    -0.69236555    -1.15874039
     16      H     4.72052110    -1.78685844     0.79594310
     17      H     2.25837751    -1.63612103     1.09451832
     18      H    -1.09654622    -3.06004205    -0.84689572
     19      H    -2.71758493    -3.50501655    -0.23536466
     20      H    -1.65303565    -2.42263721     0.70722574

Total System Charge              0.00000

 *** GO1_GOStep5 ***

 Energy gradients wrt nuclear displacements
 ==========================================

     Atom      Cartesian (a.u./angstrom)
                 X         Y         Z
 ----------------------------------------
     1 C    -0.004038 -0.000668  0.004626
     2 C     0.002797  0.001184 -0.001028
     3 C    -0.000176 -0.000708 -0.001306
     4 C    -0.000914  0.000471 -0.000327
     5 C     0.001638 -0.000380 -0.000516
     6 C     0.000217 -0.000328  0.001458
     7 C     0.001002 -0.001087  0.000300
     8 N    -0.010516  0.003898 -0.007075
     9 N     0.013124  0.000998 -0.001517
    10 C    -0.010281  0.007037  0.010458
    11 C     0.003046 -0.007237 -0.000660
    12 O     0.005808 -0.003108 -0.003850
    13 H     0.000280 -0.000333  0.000372
    14 H    -0.000756 -0.000287  0.001117
    15 H    -0.001262 -0.000063 -0.000029
    16 H    -0.000505  0.000173 -0.000751
    17 H     0.000327  0.000086 -0.001036
    18 H     0.000077 -0.000297  0.000809
    19 H     0.000923  0.000884 -0.000188
    20 H    -0.000791 -0.000234 -0.000856
 ----------------------------------------
 Rebuilding optimization coordinates
Challenging geometry: added dihedral     2    1    9   10

 dE(predicted):    -0.13278E-02, dE(actual):    -0.47381E-03, Trust radius:    0.400000, all in a.u.
 
----------------------------------------------------------------------
Geometry Convergence after Step   5       (Hartree/Angstrom,Angstrom)
----------------------------------------------------------------------
current energy                               -4.62270680 Hartree
energy change                      -0.00047381     0.00020000    F
constrained gradient max            0.01312978     0.00010000    F
constrained gradient rms            0.00366386     0.00006667    F
gradient max                        0.01312978
gradient rms                        0.00366386
cart. step max                      0.12403832     0.01000000    F
cart. step rms                      0.04461120     0.00666667    F
 

--------
Geometry
--------
Formula: C9H8N2O
Atoms
  Index Symbol   x (angstrom)   y (angstrom)   z (angstrom)
      1      C     0.54995561    -0.46743671    -0.58821416
      2      C     1.96927246    -0.52694325    -0.73738465
      3      C     2.59052333     0.10665739    -1.83995391
      4      C     3.97800544     0.06906202    -1.96929601
      5      C     4.76296542    -0.59106919    -1.01404586
      6      C     4.15268236    -1.21236098     0.08253924
      7      C     2.76649305    -1.17281346     0.23385699
      8      N    -0.57723997    -0.50097219    -0.95234343
      9      N    -1.80123286    -0.38074963    -1.26354277
     10      C    -2.65896446    -1.49620138    -0.99917103
     11      C    -2.04348776    -2.72699083    -0.32609177
     12      O    -3.83584156    -1.42632686    -1.31327205
     13      H     1.97840913     0.61854761    -2.57799857
     14      H     4.44970471     0.55655113    -2.81971651
     15      H     5.84498419    -0.61421406    -1.12126349
     16      H     4.76015100    -1.71673040     0.83083413
     17      H     2.29006686    -1.63234025     1.09587678
     18      H    -1.22058454    -3.13336214    -0.92755356
     19      H    -2.82309156    -3.48172504    -0.21036611
     20      H    -1.63465085    -2.46577178     0.65884674

Total System Charge              0.00000

 *** GO1_GOStep6 ***

 Energy gradients wrt nuclear displacements
 ==========================================

     Atom      Cartesian (a.u./angstrom)
                 X         Y         Z
 ----------------------------------------
     1 C     0.001943  0.002308  0.009208
     2 C     0.002292 -0.004038 -0.004227
     3 C     0.000393  0.001151  0.000957
     4 C    -0.000352 -0.000224 -0.000333
     5 C     0.000121  0.000232  0.000175
     6 C    -0.000160 -0.000719 -0.000170
     7 C    -0.000210  0.000142 -0.000143
     8 N    -0.003313  0.002206 -0.007759
     9 N     0.002384  0.000121  0.000438
    10 C    -0.003925  0.001314  0.001222
    11 C     0.001265 -0.003354  0.000849
    12 O     0.000188 -0.000542 -0.000736
    13 H     0.000074  0.000198  0.000254
    14 H    -0.000132 -0.000242  0.000107
    15 H    -0.000211  0.000246  0.000121
    16 H    -0.000153  0.000310 -0.000116
    17 H     0.000062  0.000635  0.000203
    18 H    -0.000039 -0.000092  0.000302
    19 H     0.000031  0.000456 -0.000252
    20 H    -0.000255 -0.000109 -0.000101
 ----------------------------------------

 dE(predicted):    -0.48523E-03, dE(actual):    -0.50624E-03, Trust radius:    0.400000, all in a.u.
 
----------------------------------------------------------------------
Geometry Convergence after Step   6       (Hartree/Angstrom,Angstrom)
----------------------------------------------------------------------
current energy                               -4.62321304 Hartree
energy change                      -0.00050624     0.00020000    F
constrained gradient max            0.00920301     0.00010000    F
constrained gradient rms            0.00205378     0.00006667    F
gradient max                        0.00920301
gradient rms                        0.00205378
cart. step max                      0.04211569     0.01000000    F
cart. step rms                      0.01336859     0.00666667    F
 

--------
Geometry
--------
Formula: C9H8N2O
Atoms
  Index Symbol   x (angstrom)   y (angstrom)   z (angstrom)
      1      C     0.54204255    -0.45706187    -0.59539249
      2      C     1.96196753    -0.50617257    -0.73078477
      3      C     2.58798133     0.10694701    -1.84248113
      4      C     3.97594412     0.06235708    -1.96799608
      5      C     4.75548250    -0.59919153    -1.00920230
      6      C     4.13991416    -1.20933235     0.09066137
      7      C     2.75381173    -1.15885771     0.24078937
      8      N    -0.58639710    -0.48866221    -0.94920234
      9      N    -1.81290310    -0.37248034    -1.25252128
     10      C    -2.65732739    -1.49665460    -0.98939043
     11      C    -2.01891275    -2.72557128    -0.33789433
     12      O    -3.83985812    -1.43334596    -1.28332737
     13      H     1.97941140     0.60891466    -2.59025839
     14      H     4.45165436     0.53895488    -2.82248213
     15      H     5.83680563    -0.63802355    -1.11973759
     16      H     4.74213779    -1.72472295     0.83590975
     17      H     2.27214716    -1.62669661     1.09546433
     18      H    -1.20451549    -3.11976514    -0.95886388
     19      H    -2.78873115    -3.48886827    -0.21185528
     20      H    -1.59253516    -2.46695671     0.64030498

Total System Charge              0.00000

 *** GO1_GOStep7 ***

 Energy gradients wrt nuclear displacements
 ==========================================

     Atom      Cartesian (a.u./angstrom)
                 X         Y         Z
 ----------------------------------------
     1 C    -0.002058  0.000581  0.006796
     2 C     0.001956  0.000442 -0.001368
     3 C    -0.000315 -0.000741 -0.000376
     4 C     0.000061  0.000418  0.000221
     5 C     0.000216 -0.000230 -0.000121
     6 C     0.000154  0.000453  0.000359
     7 C    -0.000260 -0.000100 -0.000293
     8 N    -0.000957  0.001685 -0.006145
     9 N     0.002711 -0.000202  0.000904
    10 C    -0.003120  0.000217  0.000452
    11 C     0.001686 -0.001798  0.000686
    12 O     0.000455 -0.000045 -0.000215
    13 H     0.000018 -0.000265 -0.000072
    14 H    -0.000040  0.000038  0.000127
    15 H    -0.000155 -0.000256 -0.000152
    16 H    -0.000039 -0.000183 -0.000183
    17 H    -0.000052 -0.000502 -0.000408
    18 H     0.000037  0.000043  0.000149
    19 H    -0.000107  0.000352 -0.000245
    20 H    -0.000191  0.000091 -0.000116
 ----------------------------------------

 dE(predicted):    -0.98703E-04, dE(actual):    -0.10579E-03, Trust radius:    0.400000, all in a.u.
 
----------------------------------------------------------------------
Geometry Convergence after Step   7       (Hartree/Angstrom,Angstrom)
----------------------------------------------------------------------
current energy                               -4.62331884 Hartree
energy change                      -0.00010579     0.00020000    T
constrained gradient max            0.00678816     0.00010000    F
constrained gradient rms            0.00144784     0.00006667    F
gradient max                        0.00678816
gradient rms                        0.00144784
cart. step max                      0.08231840     0.01000000    F
cart. step rms                      0.02389377     0.00666667    F
 

--------
Geometry
--------
Formula: C9H8N2O
Atoms
  Index Symbol   x (angstrom)   y (angstrom)   z (angstrom)
      1      C     0.54117186    -0.46744077    -0.62323744
      2      C     1.96013636    -0.51131077    -0.74465448
      3      C     2.59389902     0.08887942    -1.85928145
      4      C     3.98331848     0.04710785    -1.97210470
      5      C     4.75692006    -0.59701115    -0.99678699
      6      C     4.13394754    -1.19427754     0.10587498
      7      C     2.74632773    -1.14775731     0.24280629
      8      N    -0.59578995    -0.48227013    -0.94186761
      9      N    -1.83013518    -0.35693088    -1.21046640
     10      C    -2.66770800    -1.48528159    -0.95361395
     11      C    -2.00975474    -2.73270793    -0.36598952
     12      O    -3.86032223    -1.40981655    -1.20100897
     13      H     1.99041957     0.57960793    -2.61876814
     14      H     4.46510261     0.51536419    -2.82807524
     15      H     5.83977998    -0.63051364    -1.09547003
     16      H     4.73168108    -1.69463309     0.86522996
     17      H     2.25948806    -1.60369895     1.10117793
     18      H    -1.22706895    -3.11296184    -1.03485308
     19      H    -2.77637082    -3.49710268    -0.22512095
     20      H    -1.53692248    -2.50243458     0.59794980

Total System Charge              0.00000

 *** GO1_GOStep8 ***

 Energy gradients wrt nuclear displacements
 ==========================================

     Atom      Cartesian (a.u./angstrom)
                 X         Y         Z
 ----------------------------------------
     1 C    -0.003733 -0.000311  0.004552
     2 C     0.001356  0.000540 -0.000717
     3 C    -0.001045 -0.000615 -0.000079
     4 C     0.000326 -0.000232  0.000174
     5 C    -0.000015 -0.000256  0.000123
     6 C     0.000272  0.000377 -0.000240
     7 C    -0.000353  0.000128 -0.000436
     8 N     0.000651  0.002318 -0.005107
     9 N     0.002601 -0.001248  0.001701
    10 C    -0.001981 -0.001565  0.000090
    11 C     0.001151  0.000354 -0.000182
    12 O     0.000943  0.000396  0.000624
    13 H    -0.000065 -0.000010 -0.000188
    14 H     0.000072  0.000279 -0.000057
    15 H     0.000120 -0.000083 -0.000008
    16 H     0.000127 -0.000243  0.000043
    17 H    -0.000014 -0.000431 -0.000091
    18 H     0.000019  0.000138 -0.000100
    19 H    -0.000325 -0.000004 -0.000122
    20 H    -0.000105  0.000469  0.000020
 ----------------------------------------

 dE(predicted):    -0.10326E-03, dE(actual):    -0.14393E-03, Trust radius:    0.400000, all in a.u.
 
----------------------------------------------------------------------
Geometry Convergence after Step   8       (Hartree/Angstrom,Angstrom)
----------------------------------------------------------------------
current energy                               -4.62346277 Hartree
energy change                      -0.00014393     0.00020000    T
constrained gradient max            0.00513458     0.00010000    F
constrained gradient rms            0.00124438     0.00006667    F
gradient max                        0.00513458
gradient rms                        0.00124438
cart. step max                      0.05164288     0.01000000    F
cart. step rms                      0.01915963     0.00666667    F
 

--------
Geometry
--------
Formula: C9H8N2O
Atoms
  Index Symbol   x (angstrom)   y (angstrom)   z (angstrom)
      1      C     0.54795296    -0.49186666    -0.67239223
      2      C     1.96579931    -0.52490569    -0.77243687
      3      C     2.61131592     0.08140297    -1.87754740
      4      C     4.00237228     0.05351104    -1.96937775
      5      C     4.76707678    -0.58214253    -0.98182712
      6      C     4.13360201    -1.18156813     0.11390334
      7      C     2.74371655    -1.15047457     0.22925863
      8      N    -0.59870264    -0.48711334    -0.94687776
      9      N    -1.84214698    -0.35068610    -1.17245591
     10      C    -2.68018119    -1.47780483    -0.92235164
     11      C    -2.02476357    -2.74032158    -0.36974946
     12      O    -3.87668336    -1.39060521    -1.14936609
     13      H     2.01465163     0.56464845    -2.64718307
     14      H     4.49212984     0.52115772    -2.82124342
     15      H     5.85148739    -0.60788403    -1.06588864
     16      H     4.72491802    -1.67249233     0.88450165
     17      H     2.24900946    -1.60655536     1.08312528
     18      H    -1.26528182    -3.12027842    -1.06518929
     19      H    -2.79558781    -3.49887534    -0.21953906
     20      H    -1.52256479    -2.53233607     0.58437682

Total System Charge              0.00000

 *** GO1_GOStep9 ***

 Energy gradients wrt nuclear displacements
 ==========================================

     Atom      Cartesian (a.u./angstrom)
                 X         Y         Z
 ----------------------------------------
     1 C    -0.002837 -0.000953  0.002946
     2 C    -0.000247 -0.000412 -0.000258
     3 C    -0.000740 -0.000383  0.000139
     4 C     0.000312  0.000466  0.000665
     5 C    -0.000387 -0.000219 -0.000065
     6 C     0.000165  0.000636 -0.000206
     7 C    -0.000215 -0.000044 -0.000291
     8 N     0.003322  0.004172 -0.005682
     9 N     0.000589 -0.002059  0.002868
    10 C    -0.000378 -0.002531  0.000588
    11 C    -0.000481  0.001507 -0.000741
    12 O     0.000883  0.000414  0.000287
    13 H    -0.000061  0.000050 -0.000270
    14 H     0.000065 -0.000011 -0.000360
    15 H     0.000229 -0.000192 -0.000125
    16 H     0.000184 -0.000273  0.000197
    17 H     0.000009 -0.000226  0.000168
    18 H    -0.000169  0.000235 -0.000061
    19 H    -0.000178 -0.000377  0.000133
    20 H    -0.000065  0.000200  0.000070
 ----------------------------------------

 dE(predicted):    -0.86736E-04, dE(actual):    -0.89498E-04, Trust radius:    0.400000, all in a.u.
 
----------------------------------------------------------------------
Geometry Convergence after Step   9       (Hartree/Angstrom,Angstrom)
----------------------------------------------------------------------
current energy                               -4.62355227 Hartree
energy change                      -0.00008950     0.00020000    T
constrained gradient max            0.00571140     0.00010000    F
constrained gradient rms            0.00132645     0.00006667    F
gradient max                        0.00571140
gradient rms                        0.00132645
cart. step max                      0.04151997     0.01000000    F
cart. step rms                      0.01626884     0.00666667    F
 

--------
Geometry
--------
Formula: C9H8N2O
Atoms
  Index Symbol   x (angstrom)   y (angstrom)   z (angstrom)
      1      C     0.54970118    -0.50889706    -0.70685079
      2      C     1.96810177    -0.53417293    -0.79274075
      3      C     2.62230517     0.09050764    -1.88269318
      4      C     4.01399807     0.06927388    -1.96164143
      5      C     4.77184333    -0.57316609    -0.97325945
      6      C     4.12998993    -1.19288543     0.10636160
      7      C     2.73903329    -1.16957698     0.20834266
      8      N    -0.59941918    -0.50039834    -0.97253520
      9      N    -1.84410003    -0.36095375    -1.19214178
     10      C    -2.68439071    -1.48026845    -0.92110073
     11      C    -2.03216561    -2.73507790    -0.34608500
     12      O    -3.88147089    -1.39486769    -1.14824241
     13      H     2.03110168     0.58410626    -2.64981963
     14      H     4.51029381     0.55611891    -2.79867566
     15      H     5.85737403    -0.58693844    -1.04329738
     16      H     4.71601971    -1.68795280     0.87810442
     17      H     2.23791937    -1.63817231     1.05149976
     18      H    -1.27771702    -3.13311677    -1.03710833
     19      H    -2.80601813    -3.48651793    -0.17801910
     20      H    -1.52427977    -2.51223383     0.60164238

Total System Charge              0.00000

 *** GO1_GOStep10 ***

 Energy gradients wrt nuclear displacements
 ==========================================

     Atom      Cartesian (a.u./angstrom)
                 X         Y         Z
 ----------------------------------------
     1 C     0.000239 -0.001639  0.003573
     2 C    -0.000256 -0.000204 -0.000046
     3 C    -0.000198 -0.000191  0.000312
     4 C     0.000216 -0.000684 -0.000279
     5 C    -0.000394  0.000266  0.000014
     6 C    -0.000001 -0.000317 -0.000370
     7 C    -0.000069  0.000276 -0.000075
     8 N     0.000120  0.003922 -0.006726
     9 N     0.000086 -0.001849  0.003147
    10 C     0.000524 -0.001758  0.000611
    11 C    -0.000564  0.001502 -0.000601
    12 O     0.000101  0.000210  0.000027
    13 H    -0.000025  0.000204 -0.000033
    14 H     0.000050  0.000269 -0.000001
    15 H     0.000147  0.000134  0.000027
    16 H     0.000102 -0.000013  0.000156
    17 H    -0.000013 -0.000000  0.000096
    18 H    -0.000063  0.000133  0.000002
    19 H    -0.000028 -0.000265  0.000120
    20 H     0.000027  0.000005  0.000046
 ----------------------------------------

 dE(predicted):    -0.18408E-04, dE(actual):    -0.16661E-04, Trust radius:    0.400000, all in a.u.
 
----------------------------------------------------------------------
Geometry Convergence after Step  10       (Hartree/Angstrom,Angstrom)
----------------------------------------------------------------------
current energy                               -4.62356893 Hartree
energy change                      -0.00001666     0.00020000    T
constrained gradient max            0.00674925     0.00010000    F
constrained gradient rms            0.00127752     0.00006667    F
gradient max                        0.00674925
gradient rms                        0.00127752
cart. step max                      0.08463139     0.01000000    F
cart. step rms                      0.03192655     0.00666667    F
 

--------
Geometry
--------
Formula: C9H8N2O
Atoms
  Index Symbol   x (angstrom)   y (angstrom)   z (angstrom)
      1      C     0.55368859    -0.53777548    -0.76808762
      2      C     1.97298753    -0.54930730    -0.82837553
      3      C     2.64133578     0.11351495    -1.88718470
      4      C     4.03399682     0.10845241    -1.94027893
      5      C     4.78008452    -0.55509994    -0.95682067
      6      C     4.12453174    -1.21108630     0.09291928
      7      C     2.73193450    -1.20476399     0.16928774
      8      N    -0.59723182    -0.52794309    -1.02452004
      9      N    -1.84297319    -0.38801290    -1.24292799
     10      C    -2.69034196    -1.48736151    -0.92345322
     11      C    -2.04734976    -2.72505356    -0.29894596
     12      O    -3.88806144    -1.40317173    -1.15024923
     13      H     2.05911498     0.62216526    -2.65111125
     14      H     4.54051202     0.62203700    -2.75464470
     15      H     5.86661139    -0.55693066    -1.00735356
     16      H     4.70113241    -1.72243990     0.86073866
     17      H     2.22011039    -1.70151263     0.98939783
     18      H    -1.30387178    -3.16336323    -0.97779271
     19      H    -2.82951469    -3.45789277    -0.09338771
     20      H    -1.52857604    -2.46964464     0.63453030

Total System Charge              0.00000

 *** GO1_GOStep11 ***

 Energy gradients wrt nuclear displacements
 ==========================================

     Atom      Cartesian (a.u./angstrom)
                 X         Y         Z
 ----------------------------------------
     1 C     0.001427 -0.002182  0.004270
     2 C    -0.000030 -0.000311 -0.000448
     3 C     0.000402 -0.000212  0.000462
     4 C     0.000125 -0.000032 -0.000189
     5 C    -0.000271  0.000057 -0.000180
     6 C    -0.000022 -0.000196 -0.000035
     7 C     0.000027  0.000216  0.000083
     8 N    -0.000736  0.003965 -0.007571
     9 N    -0.000598 -0.001702  0.003330
    10 C     0.000668 -0.000058  0.000343
    11 C    -0.000614  0.000535 -0.000113
    12 O    -0.000628 -0.000199 -0.000114
    13 H    -0.000060  0.000066  0.000073
    14 H    -0.000017  0.000006  0.000179
    15 H    -0.000055  0.000126 -0.000012
    16 H     0.000004  0.000062 -0.000064
    17 H    -0.000049  0.000189 -0.000117
    18 H     0.000082 -0.000138  0.000128
    19 H     0.000212  0.000041 -0.000005
    20 H     0.000134 -0.000235 -0.000019
 ----------------------------------------

 dE(predicted):    -0.21266E-04, dE(actual):    -0.30542E-04, Trust radius:    0.400000, all in a.u.
 
----------------------------------------------------------------------
Geometry Convergence after Step  11       (Hartree/Angstrom,Angstrom)
----------------------------------------------------------------------
current energy                               -4.62359947 Hartree
energy change                      -0.00003054     0.00020000    T
constrained gradient max            0.00758957     0.00010000    F
constrained gradient rms            0.00138983     0.00006667    F
gradient max                        0.00758957
gradient rms                        0.00138983
cart. step max                      0.06411597     0.01000000    F
cart. step rms                      0.02314707     0.00666667    F
 

--------
Geometry
--------
Formula: C9H8N2O
Atoms
  Index Symbol   x (angstrom)   y (angstrom)   z (angstrom)
      1      C     0.55570051    -0.55386286    -0.81356936
      2      C     1.97523100    -0.55429245    -0.85154578
      3      C     2.65370667     0.13367080    -1.88815274
      4      C     4.04664350     0.13448846    -1.92431087
      5      C     4.78387867    -0.54422837    -0.94416855
      6      C     4.11809835    -1.22563096     0.08289309
      7      C     2.72478051    -1.22816752     0.14144317
      8      N    -0.59556097    -0.54757447    -1.06333529
      9      N    -1.84193338    -0.41188274    -1.28497256
     10      C    -2.69285981    -1.49427713    -0.92503099
     11      C    -2.05399993    -2.71728948    -0.26506277
     12      O    -3.89127726    -1.41139593    -1.14895791
     13      H     2.07860934     0.65415342    -2.64931293
     14      H     4.56064692     0.66518957    -2.72278397
     15      H     5.87085436    -0.54063939    -0.98129574
     16      H     4.68730161    -1.75061588     0.84676653
     17      H     2.20539846    -1.74617310     0.94345361
     18      H    -1.32110936    -3.18492936    -0.93611132
     19      H    -2.84145659    -3.43505627    -0.02927174
     20      H    -1.52453261    -2.43667634     0.65506611

Total System Charge              0.00000

 *** GO1_GOStep12 ***

 Energy gradients wrt nuclear displacements
 ==========================================

     Atom      Cartesian (a.u./angstrom)
                 X         Y         Z
 ----------------------------------------
     1 C    -0.000678 -0.002494  0.003778
     2 C     0.000089  0.000199 -0.000122
     3 C     0.000612  0.000223  0.000211
     4 C    -0.000314 -0.000343 -0.000405
     5 C    -0.000065  0.000240  0.000238
     6 C     0.000014 -0.000349 -0.000072
     7 C     0.000380 -0.000003  0.000160
     8 N     0.001596  0.003961 -0.007316
     9 N    -0.001176 -0.002025  0.003306
    10 C     0.000118  0.001166  0.000313
    11 C    -0.000500 -0.000089  0.000242
    12 O    -0.000307 -0.000313 -0.000117
    13 H    -0.000059 -0.000026  0.000115
    14 H    -0.000036 -0.000088  0.000132
    15 H    -0.000121  0.000070 -0.000046
    16 H    -0.000062  0.000122 -0.000181
    17 H    -0.000053  0.000114 -0.000120
    18 H     0.000229 -0.000350  0.000031
    19 H     0.000175  0.000196 -0.000104
    20 H     0.000160 -0.000213 -0.000043
 ----------------------------------------

 dE(predicted):    -0.15508E-04, dE(actual):    -0.44130E-04, Trust radius:    0.400000, all in a.u.
 
----------------------------------------------------------------------
Geometry Convergence after Step  12       (Hartree/Angstrom,Angstrom)
----------------------------------------------------------------------
current energy                               -4.62364360 Hartree
energy change                      -0.00004413     0.00020000    T
constrained gradient max            0.00734119     0.00010000    F
constrained gradient rms            0.00137180     0.00006667    F
gradient max                        0.00734119
gradient rms                        0.00137180
cart. step max                      0.21185156     0.01000000    F
cart. step rms                      0.07985497     0.00666667    F
 

--------
Geometry
--------
Formula: C9H8N2O
Atoms
  Index Symbol   x (angstrom)   y (angstrom)   z (angstrom)
      1      C     0.55889346    -0.60384294    -0.96399958
      2      C     1.97606800    -0.57508718    -0.93071098
      3      C     2.68496427     0.19678426    -1.88621725
      4      C     4.07745763     0.22076670    -1.86114772
      5      C     4.78611931    -0.52020883    -0.90423724
      6      C     4.08913704    -1.28291396     0.04269450
      7      C     2.69522524    -1.30908852     0.04306962
      8      N    -0.59371492    -0.61299913    -1.19364700
      9      N    -1.84105536    -0.50169722    -1.43041421
     10      C    -2.69327772    -1.52522200    -0.93908932
     11      C    -2.05605152    -2.67425639    -0.14858104
     12      O    -3.89349406    -1.46061772    -1.16017657
     13      H     2.13299614     0.76254472    -2.63153825
     14      H     4.61414477     0.81401009    -2.59820070
     15      H     5.87336043    -0.50124546    -0.89627892
     16      H     4.63467448    -1.85668192     0.78800848
     17      H     2.15351723    -1.89415891     0.78173066
     18      H    -1.34508740    -3.22984784    -0.77500752
     19      H    -2.85084315    -3.34453908     0.18257982
     20      H    -1.50491387    -2.29688865     0.72290322

Total System Charge              0.00000

 *** GO1_GOStep13 ***

 Energy gradients wrt nuclear displacements
 ==========================================

     Atom      Cartesian (a.u./angstrom)
                 X         Y         Z
 ----------------------------------------
     1 C    -0.004655 -0.002476  0.002529
     2 C    -0.000430  0.000021  0.000997
     3 C     0.000992  0.000897 -0.001548
     4 C    -0.001526  0.000842 -0.000433
     5 C     0.001221 -0.000496  0.000014
     6 C    -0.000562 -0.000945  0.000416
     7 C     0.001135  0.000171  0.001068
     8 N     0.005404  0.003508 -0.006377
     9 N    -0.001947 -0.002934  0.003731
    10 C    -0.000722  0.004024 -0.001305
    11 C     0.000906 -0.001950  0.001503
    12 O     0.000476 -0.000301  0.000032
    13 H     0.000004 -0.000174  0.000364
    14 H    -0.000288 -0.000332 -0.000051
    15 H    -0.000231 -0.000056 -0.000135
    16 H    -0.000355  0.000266 -0.000559
    17 H     0.000012  0.000023  0.000112
    18 H     0.000357 -0.000476 -0.000187
    19 H    -0.000037  0.000465 -0.000330
    20 H     0.000246 -0.000080  0.000159
 ----------------------------------------

 dE(predicted):    -0.45564E-04, dE(actual):    -0.16307E-03, Trust radius:    0.400000, all in a.u.
 
----------------------------------------------------------------------
Geometry Convergence after Step  13       (Hartree/Angstrom,Angstrom)
----------------------------------------------------------------------
current energy                               -4.62380667 Hartree
energy change                      -0.00016307     0.00020000    T
constrained gradient max            0.00642526     0.00010000    F
constrained gradient rms            0.00175187     0.00006667    F
gradient max                        0.00642526
gradient rms                        0.00175187
cart. step max                      0.19826850     0.01000000    F
cart. step rms                      0.08134716     0.00666667    F
 

--------
Geometry
--------
Formula: C9H8N2O
Atoms
  Index Symbol   x (angstrom)   y (angstrom)   z (angstrom)
      1      C     0.56473050    -0.66099105    -1.07693534
      2      C     1.97902078    -0.61125058    -1.00012725
      3      C     2.69984684     0.24503886    -1.87119761
      4      C     4.08983840     0.29808751    -1.79520329
      5      C     4.78452082    -0.49170225    -0.86765603
      6      C     4.07572428    -1.34209215    -0.00841577
      7      C     2.68403545    -1.40463036    -0.06323189
      8      N    -0.58671504    -0.68267737    -1.30761301
      9      N    -1.83099590    -0.60546326    -1.57159889
     10      C    -2.68859006    -1.56457478    -0.97205999
     11      C    -2.06304323    -2.60635035    -0.03408562
     12      O    -3.88524608    -1.53121612    -1.21706172
     13      H     2.15918505     0.85378970    -2.59042034
     14      H     4.63546955     0.95891039    -2.46523398
     15      H     5.86978253    -0.44630450    -0.81748402
     16      H     4.61021035    -1.95767512     0.71117294
     17      H     2.13375981    -2.05852875     0.60822905
     18      H    -1.34462556    -3.23538771    -0.57673903
     19      H    -2.86414908    -3.22977949     0.36617012
     20      H    -1.52463941    -2.12239261     0.79123166

Total System Charge              0.00000

 *** GO1_GOStep14 ***

 Energy gradients wrt nuclear displacements
 ==========================================

     Atom      Cartesian (a.u./angstrom)
                 X         Y         Z
 ----------------------------------------
     1 C    -0.005968 -0.002134  0.003292
     2 C    -0.000282 -0.000384  0.001152
     3 C     0.000903  0.000929 -0.002157
     4 C    -0.001529  0.000587 -0.000688
     5 C     0.001642 -0.000167  0.000569
     6 C    -0.000394 -0.000646  0.000713
     7 C     0.000869 -0.000670  0.000182
     8 N     0.005985  0.004431 -0.006506
     9 N    -0.001427 -0.003130  0.003883
    10 C    -0.001700  0.004207 -0.003169
    11 C     0.001620 -0.002601  0.002835
    12 O     0.001052 -0.000369  0.000419
    13 H     0.000043 -0.000426  0.000355
    14 H    -0.000284 -0.000045  0.000065
    15 H    -0.000302 -0.000210 -0.000247
    16 H    -0.000376  0.000428 -0.000519
    17 H     0.000097  0.000082  0.000155
    18 H     0.000170 -0.000317 -0.000155
    19 H    -0.000193  0.000511 -0.000268
    20 H     0.000072 -0.000074  0.000090
 ----------------------------------------

 dE(predicted):    -0.22032E-03, dE(actual):    -0.24182E-04, Trust radius:    0.036990, all in a.u.
 
----------------------------------------------------------------------
Geometry Convergence after Step  14       (Hartree/Angstrom,Angstrom)
----------------------------------------------------------------------
current energy                               -4.62383086 Hartree
energy change                      -0.00002418     0.00020000    T
constrained gradient max            0.00652907     0.00010000    F
constrained gradient rms            0.00201354     0.00006667    F
gradient max                        0.00652907
gradient rms                        0.00201354
cart. step max                      0.03733550     0.01000000    F
cart. step rms                      0.01491784     0.00666667    F
 

--------
Geometry
--------
Formula: C9H8N2O
Atoms
  Index Symbol   x (angstrom)   y (angstrom)   z (angstrom)
      1      C     0.56516917    -0.66711880    -1.10557398
      2      C     1.97819440    -0.61330104    -1.01827667
      3      C     2.70501299     0.25614542    -1.87052432
      4      C     4.09456634     0.30990231    -1.78196661
      5      C     4.78194884    -0.48957369    -0.85811744
      6      C     4.06741536    -1.35225898    -0.01664924
      7      C     2.67642173    -1.41725978    -0.08560064
      8      N    -0.58844262    -0.69354750    -1.32804442
      9      N    -1.83363238    -0.62447781    -1.59095383
     10      C    -2.68781054    -1.57431315    -0.97187249
     11      C    -2.05898550    -2.59464877    -0.01464853
     12      O    -3.88495109    -1.54884566    -1.21697096
     13      H     2.17003002     0.87320657    -2.58724122
     14      H     4.64541002     0.97931590    -2.43928044
     15      H     5.86670963    -0.44242851    -0.79711787
     16      H     4.59681389    -1.97656792     0.69967179
     17      H     2.12153736    -2.08236460     0.57089355
     18      H    -1.33916731    -3.23196484    -0.54544667
     19      H    -2.85698472    -3.21302523     0.39966931
     20      H    -1.52113558    -2.09206391     0.79979068

Total System Charge              0.00000

 *** GO1_GOStep15 ***

 Energy gradients wrt nuclear displacements
 ==========================================

     Atom      Cartesian (a.u./angstrom)
                 X         Y         Z
 ----------------------------------------
     1 C    -0.002580 -0.002213  0.003948
     2 C    -0.000146 -0.000501  0.000710
     3 C     0.000623  0.000652 -0.001306
     4 C    -0.000870  0.000160 -0.000218
     5 C     0.000832 -0.000017  0.000394
     6 C    -0.000142 -0.000108  0.000232
     7 C     0.000283 -0.000216 -0.000181
     8 N     0.003096  0.004420 -0.006789
     9 N    -0.001588 -0.003089  0.003850
    10 C    -0.000770  0.003440 -0.002580
    11 C     0.001356 -0.002117  0.002279
    12 O     0.000446 -0.000307  0.000246
    13 H    -0.000040 -0.000315  0.000130
    14 H    -0.000113 -0.000030 -0.000012
    15 H    -0.000189 -0.000143 -0.000207
    16 H    -0.000150  0.000188 -0.000290
    17 H     0.000084 -0.000003  0.000048
    18 H     0.000018 -0.000203 -0.000107
    19 H    -0.000172  0.000377 -0.000149
    20 H     0.000023  0.000025  0.000002
 ----------------------------------------

 dE(predicted):    -0.49711E-04, dE(actual):    -0.37752E-04, Trust radius:    0.073981, all in a.u.
 
----------------------------------------------------------------------
Geometry Convergence after Step  15       (Hartree/Angstrom,Angstrom)
----------------------------------------------------------------------
current energy                               -4.62386861 Hartree
energy change                      -0.00003775     0.00020000    T
constrained gradient max            0.00681381     0.00010000    F
constrained gradient rms            0.00166314     0.00006667    F
gradient max                        0.00681381
gradient rms                        0.00166314
cart. step max                      0.07779249     0.01000000    F
cart. step rms                      0.03354632     0.00666667    F
 

--------
Geometry
--------
Formula: C9H8N2O
Atoms
  Index Symbol   x (angstrom)   y (angstrom)   z (angstrom)
      1      C     0.56021814    -0.63073132    -1.12250324
      2      C     1.97192075    -0.58458132    -1.03271556
      3      C     2.71981822     0.25215936    -1.89659046
      4      C     4.11078315     0.28246875    -1.79942668
      5      C     4.77542765    -0.50604904    -0.85255905
      6      C     4.04067993    -1.33367389     0.00481876
      7      C     2.64925048    -1.37598425    -0.07461254
      8      N    -0.60352458    -0.66215605    -1.29711294
      9      N    -1.85622867    -0.58541684    -1.52561037
     10      C    -2.69116776    -1.56956244    -0.93202890
     11      C    -2.03668944    -2.62707664    -0.04537635
     12      O    -3.89479564    -1.53714564    -1.14897001
     13      H     2.20258778     0.86321569    -2.63250685
     14      H     4.67961346     0.92542585    -2.46841295
     15      H     5.86087478    -0.47577613    -0.78336456
     16      H     4.55422233    -1.94948226     0.74151698
     17      H     2.07736159    -2.01600475     0.59216937
     18      H    -1.32290108    -3.22867953    -0.62323916
     19      H    -2.81545572    -3.27682692     0.35850680
     20      H    -1.48387537    -2.15931265     0.77975771

Total System Charge              0.00000

 *** GO1_GOStep16 ***

 Energy gradients wrt nuclear displacements
 ==========================================

     Atom      Cartesian (a.u./angstrom)
                 X         Y         Z
 ----------------------------------------
     1 C     0.007872 -0.002639  0.004579
     2 C    -0.000180  0.000479 -0.000878
     3 C    -0.000347 -0.000939  0.001543
     4 C     0.001337 -0.001542  0.000925
     5 C    -0.002414  0.000224 -0.000549
     6 C     0.000734  0.001442 -0.001345
     7 C    -0.001550  0.001431 -0.001023
     8 N    -0.004781  0.003144 -0.005916
     9 N    -0.002222 -0.002112  0.002976
    10 C     0.003367 -0.000514  0.001212
    11 C    -0.000510  0.001041 -0.000722
    12 O    -0.001921  0.000059 -0.000498
    13 H    -0.000298  0.000436 -0.000423
    14 H     0.000482  0.000051 -0.000365
    15 H     0.000419  0.000024 -0.000045
    16 H     0.000600 -0.000617  0.000503
    17 H    -0.000033  0.000007 -0.000008
    18 H    -0.000344  0.000157  0.000022
    19 H    -0.000034 -0.000271  0.000290
    20 H    -0.000178  0.000141 -0.000279
 ----------------------------------------
 Rebuilding optimization coordinates
Challenging geometry: added dihedral     7    2    8   10

 dE(predicted):    -0.10138E-03, dE(actual):    -0.11598E-03, Trust radius:    0.147961, all in a.u.
 
----------------------------------------------------------------------
Geometry Convergence after Step  16       (Hartree/Angstrom,Angstrom)
----------------------------------------------------------------------
current energy                               -4.62398459 Hartree
energy change                      -0.00011598     0.00020000    T
constrained gradient max            0.00787781     0.00010000    F
constrained gradient rms            0.00192612     0.00006667    F
gradient max                        0.00787781
gradient rms                        0.00192612
cart. step max                      0.14258056     0.01000000    F
cart. step rms                      0.05972055     0.00666667    F
 

--------
Geometry
--------
Formula: C9H8N2O
Atoms
  Index Symbol   x (angstrom)   y (angstrom)   z (angstrom)
      1      C     0.56366644    -0.67236952    -1.21468068
      2      C     1.97135195    -0.60892469    -1.08463055
      3      C     2.72534458     0.28676292    -1.88175012
      4      C     4.11222304     0.33561505    -1.74515889
      5      C     4.76790806    -0.49447947    -0.82685406
      6      C     4.02634078    -1.38133552    -0.03596731
      7      C     2.63852057    -1.44100783    -0.15237963
      8      N    -0.59826490    -0.71712459    -1.37870046
      9      N    -1.84906650    -0.66867085    -1.62649605
     10      C    -2.68346498    -1.59951844    -0.95178863
     11      C    -2.03031525    -2.56877533     0.03361316
     12      O    -3.88509493    -1.59459995    -1.17962736
     13      H     2.21627724     0.93013414    -2.59508437
     14      H     4.68493994     1.02535186    -2.36181985
     15      H     5.85013214    -0.44841207    -0.72594574
     16      H     4.53145842    -2.02681908     0.68024349
     17      H     2.06197242    -2.12572504     0.46397641
     18      H    -1.30686689    -3.21513016    -0.48065860
     19      H    -2.80964398    -3.18472860     0.48599054
     20      H    -1.48929815    -2.02543285     0.81945869

Total System Charge              0.00000

 *** GO1_GOStep17 ***

 Energy gradients wrt nuclear displacements
 ==========================================

     Atom      Cartesian (a.u./angstrom)
                 X         Y         Z
 ----------------------------------------
     1 C    -0.002260 -0.002279  0.002057
     2 C    -0.000296  0.000520 -0.001367
     3 C    -0.000365 -0.000650  0.000361
     4 C     0.000431 -0.000257  0.000961
     5 C    -0.000964 -0.000265 -0.000481
     6 C     0.000334  0.000211 -0.001004
     7 C    -0.000471  0.000611  0.000391
     8 N     0.004126  0.003515 -0.003598
     9 N    -0.001412 -0.001966  0.002506
    10 C     0.001817 -0.000170  0.000577
    11 C    -0.000436  0.000199 -0.000466
    12 O    -0.000974 -0.000075 -0.000289
    13 H    -0.000105  0.000412 -0.000302
    14 H     0.000121  0.000102 -0.000216
    15 H     0.000203  0.000165  0.000217
    16 H     0.000270 -0.000233  0.000400
    17 H     0.000134 -0.000025  0.000036
    18 H    -0.000320  0.000115  0.000052
    19 H     0.000147  0.000027  0.000165
    20 H     0.000019  0.000042  0.000000
 ----------------------------------------

 dE(predicted):    -0.10745E-03, dE(actual):    -0.69493E-04, Trust radius:    0.147961, all in a.u.
 
----------------------------------------------------------------------
Geometry Convergence after Step  17       (Hartree/Angstrom,Angstrom)
----------------------------------------------------------------------
current energy                               -4.62405408 Hartree
energy change                      -0.00006949     0.00020000    T
constrained gradient max            0.00413675     0.00010000    F
constrained gradient rms            0.00117089     0.00006667    F
gradient max                        0.00413675
gradient rms                        0.00117089
cart. step max                      0.02979831     0.01000000    F
cart. step rms                      0.01168493     0.00666667    F
 

--------
Geometry
--------
Formula: C9H8N2O
Atoms
  Index Symbol   x (angstrom)   y (angstrom)   z (angstrom)
      1      C     0.56956989    -0.68349642    -1.19483477
      2      C     1.97851914    -0.61234072    -1.07111752
      3      C     2.72294213     0.28754458    -1.87220106
      4      C     4.11092978     0.33937697    -1.74887985
      5      C     4.77624123    -0.48645993    -0.83352358
      6      C     4.04352345    -1.37501432    -0.03588890
      7      C     2.65552011    -1.44351690    -0.14546474
      8      N    -0.59258904    -0.73790840    -1.37110357
      9      N    -1.83960305    -0.67830577    -1.63492271
     10      C    -2.68900628    -1.59617347    -0.96065381
     11      C    -2.05189806    -2.56889757     0.03156535
     12      O    -3.88900226    -1.57705050    -1.19448613
     13      H     2.20606227     0.92745534    -2.58284051
     14      H     4.67663630     1.02896058    -2.37204297
     15      H     5.85945341    -0.44005649    -0.74448392
     16      H     4.55663365    -2.02046805     0.67441356
     17      H     2.08589152    -2.13161128     0.47360888
     18      H    -1.32700079    -3.22017680    -0.47458859
     19      H    -2.83944229    -3.17944462     0.47726552
     20      H    -1.51526114    -2.02760622     0.82191934

Total System Charge              0.00000

 *** GO1_GOStep18 ***

 Energy gradients wrt nuclear displacements
 ==========================================

     Atom      Cartesian (a.u./angstrom)
                 X         Y         Z
 ----------------------------------------
     1 C     0.005183 -0.001480  0.003380
     2 C     0.001099  0.001515 -0.001326
     3 C    -0.000319 -0.000399  0.001134
     4 C     0.000531 -0.000461  0.000157
     5 C    -0.000731  0.000212 -0.000145
     6 C     0.000141  0.000764 -0.000003
     7 C    -0.000557 -0.000231 -0.000491
     8 N    -0.005795  0.000141 -0.003674
     9 N    -0.001179 -0.000268  0.001199
    10 C     0.001502 -0.000311  0.000804
    11 C    -0.000300  0.000452 -0.000669
    12 O     0.000040  0.000263 -0.000129
    13 H    -0.000058  0.000171 -0.000313
    14 H     0.000122  0.000017 -0.000179
    15 H     0.000187 -0.000107 -0.000141
    16 H     0.000210 -0.000356  0.000102
    17 H     0.000006  0.000036  0.000093
    18 H    -0.000203  0.000029  0.000015
    19 H     0.000040 -0.000100  0.000203
    20 H     0.000082  0.000113 -0.000018
 ----------------------------------------

 dE(predicted):    -0.32442E-04, dE(actual):    -0.11825E-04, Trust radius:    0.147961, all in a.u.
 
----------------------------------------------------------------------
Geometry Convergence after Step  18       (Hartree/Angstrom,Angstrom)
----------------------------------------------------------------------
current energy                               -4.62406590 Hartree
energy change                      -0.00001182     0.00020000    T
constrained gradient max            0.00578589     0.00010000    F
constrained gradient rms            0.00131619     0.00006667    F
gradient max                        0.00578589
gradient rms                        0.00131619
cart. step max                      0.03450969     0.01000000    F
cart. step rms                      0.01367060     0.00666667    F
 

--------
Geometry
--------
Formula: C9H8N2O
Atoms
  Index Symbol   x (angstrom)   y (angstrom)   z (angstrom)
      1      C     0.57242046    -0.69358351    -1.22224026
      2      C     1.97924104    -0.61726976    -1.08376672
      3      C     2.72523838     0.29459712    -1.86988641
      4      C     4.11204579     0.35091800    -1.73682377
      5      C     4.77509599    -0.48320798    -0.82712507
      6      C     4.04069366    -1.38487346    -0.04541922
      7      C     2.65373021    -1.45732157    -0.16397962
      8      N    -0.58996334    -0.75277225    -1.38703174
      9      N    -1.83710845    -0.69812458    -1.65363900
     10      C    -2.68805223    -1.60290231    -0.96338833
     11      C    -2.05267497    -2.55558039     0.04992519
     12      O    -3.88755573    -1.58989070    -1.20044943
     13      H     2.21007338     0.94159853    -2.57504292
     14      H     4.67841829     1.05131794    -2.34700593
     15      H     5.85731507    -0.43271983    -0.72976952
     16      H     4.55179612    -2.03635701     0.66048269
     17      H     2.08321985    -2.15650232     0.44164390
     18      H    -1.32163323    -3.21251222    -0.44007891
     19      H    -2.84060645    -3.16160856     0.50107776
     20      H    -1.52357384    -1.99839514     0.83425731

Total System Charge              0.00000

 *** GO1_GOStep19 ***

 Energy gradients wrt nuclear displacements
 ==========================================

     Atom      Cartesian (a.u./angstrom)
                 X         Y         Z
 ----------------------------------------
     1 C     0.001393 -0.001026  0.001432
     2 C     0.000533  0.001421 -0.000459
     3 C    -0.000490 -0.000390  0.000544
     4 C     0.000377 -0.000375 -0.000101
     5 C    -0.000221  0.000238 -0.000088
     6 C    -0.000012  0.000204 -0.000060
     7 C    -0.000242 -0.000228  0.000070
     8 N    -0.001110  0.000094 -0.002365
     9 N    -0.000767 -0.000045  0.000949
    10 C     0.000829 -0.000173  0.000649
    11 C    -0.000246  0.000405 -0.000307
    12 O    -0.000245  0.000013 -0.000120
    13 H    -0.000006  0.000147 -0.000091
    14 H    -0.000026  0.000006 -0.000069
    15 H     0.000086 -0.000023 -0.000085
    16 H     0.000083 -0.000154 -0.000011
    17 H     0.000057  0.000016 -0.000012
    18 H    -0.000090 -0.000022 -0.000027
    19 H     0.000024 -0.000045  0.000141
    20 H     0.000072 -0.000063  0.000011
 ----------------------------------------

 dE(predicted):    -0.19837E-04, dE(actual):    -0.35652E-04, Trust radius:    0.147961, all in a.u.
 
----------------------------------------------------------------------
Geometry Convergence after Step  19       (Hartree/Angstrom,Angstrom)
----------------------------------------------------------------------
current energy                               -4.62410156 Hartree
energy change                      -0.00003565     0.00020000    T
constrained gradient max            0.00239071     0.00010000    F
constrained gradient rms            0.00055921     0.00006667    F
gradient max                        0.00239071
gradient rms                        0.00055921
cart. step max                      0.04934419     0.01000000    F
cart. step rms                      0.02037075     0.00666667    F
 

--------
Geometry
--------
Formula: C9H8N2O
Atoms
  Index Symbol   x (angstrom)   y (angstrom)   z (angstrom)
      1      C     0.57648936    -0.71262157    -1.25872012
      2      C     1.98077293    -0.62940636    -1.10383621
      3      C     2.72697839     0.30289932    -1.86592353
      4      C     4.11154623     0.36923229    -1.71706594
      5      C     4.77283388    -0.47703610    -0.81716926
      6      C     4.03829027    -1.39916528    -0.05957634
      7      C     2.65330814    -1.48062778    -0.19277222
      8      N    -0.58676799    -0.77673391    -1.40945072
      9      N    -1.83318460    -0.72791843    -1.68186407
     10      C    -2.68685346    -1.61144855    -0.96755127
     11      C    -2.05369336    -2.53392240     0.07530152
     12      O    -3.88558531    -1.60544237    -1.20795032
     13      H     2.21317282     0.95824779    -2.56407888
     14      H     4.67787639     1.08548185    -2.30851376
     15      H     5.85338594    -0.41880511    -0.70738772
     16      H     4.54770612    -2.05797709     0.64043802
     17      H     2.08272500    -2.19568359     0.39398881
     18      H    -1.31391099    -3.19868558    -0.39073471
     19      H    -2.84172463    -3.13301450     0.53542711
     20      H    -1.53524512    -1.95256263     0.84917960

Total System Charge              0.00000

 *** GO1_GOStep20 ***

 Energy gradients wrt nuclear displacements
 ==========================================

     Atom      Cartesian (a.u./angstrom)
                 X         Y         Z
 ----------------------------------------
     1 C    -0.000995 -0.000324 -0.000222
     2 C    -0.000009  0.000751 -0.000020
     3 C    -0.000486 -0.000223  0.000105
     4 C     0.000140  0.000125  0.000169
     5 C     0.000053 -0.000060 -0.000187
     6 C    -0.000059 -0.000237 -0.000260
     7 C     0.000169 -0.000063  0.000402
     8 N     0.001304 -0.000357 -0.000598
     9 N    -0.000017  0.000371  0.000308
    10 C    -0.000165 -0.000073  0.000611
    11 C    -0.000065  0.000413 -0.000005
    12 O     0.000073 -0.000122 -0.000100
    13 H     0.000043  0.000020  0.000001
    14 H    -0.000101 -0.000085 -0.000103
    15 H    -0.000043  0.000036 -0.000027
    16 H    -0.000024  0.000086 -0.000040
    17 H     0.000043  0.000016 -0.000034
    18 H     0.000095 -0.000129 -0.000019
    19 H     0.000007 -0.000007  0.000028
    20 H     0.000040 -0.000140 -0.000011
 ----------------------------------------

 dE(predicted):    -0.12980E-04, dE(actual):    -0.26886E-04, Trust radius:    0.147961, all in a.u.
 
----------------------------------------------------------------------
Geometry Convergence after Step  20       (Hartree/Angstrom,Angstrom)
----------------------------------------------------------------------
current energy                               -4.62412844 Hartree
energy change                      -0.00002689     0.00020000    T
constrained gradient max            0.00131340     0.00010000    F
constrained gradient rms            0.00030327     0.00006667    F
gradient max                        0.00131340
gradient rms                        0.00030327
cart. step max                      0.01000621     0.01000000    F
cart. step rms                      0.00374413     0.00666667    T
 

--------
Geometry
--------
Formula: C9H8N2O
Atoms
  Index Symbol   x (angstrom)   y (angstrom)   z (angstrom)
      1      C     0.57652033    -0.71076830    -1.25685035
      2      C     1.98122685    -0.62989680    -1.10418266
      3      C     2.72800352     0.29951563    -1.86967224
      4      C     4.11241374     0.36645798    -1.72046088
      5      C     4.77316349    -0.47588885    -0.81643849
      6      C     4.03831433    -1.39551044    -0.05606495
      7      C     2.65351621    -1.47845113    -0.19063320
      8      N    -0.58726149    -0.77368804    -1.40517377
      9      N    -1.83399616    -0.72237905    -1.67559411
     10      C    -2.68785209    -1.60817232    -0.96445862
     11      C    -2.05409319    -2.53854109     0.07120984
     12      O    -3.88730206    -1.59768141    -1.20121230
     13      H     2.21422134     0.95289425    -2.56968734
     14      H     4.67897139     1.08154001    -2.31313626
     15      H     5.85366655    -0.41720022    -0.70634389
     16      H     4.54755278    -2.05246023     0.64583386
     17      H     2.08270430    -2.19174782     0.39807868
     18      H    -1.31604804    -3.20129493    -0.40028973
     19      H    -2.84211596    -3.13934839     0.52906855
     20      H    -1.53348584    -1.96256884     0.84774786

Total System Charge              0.00000

 *** GO1_GOStep21 ***

 Energy gradients wrt nuclear displacements
 ==========================================

     Atom      Cartesian (a.u./angstrom)
                 X         Y         Z
 ----------------------------------------
     1 C    -0.000568 -0.000103 -0.000120
     2 C    -0.000080  0.000377  0.000157
     3 C    -0.000208 -0.000160 -0.000079
     4 C     0.000089 -0.000010 -0.000090
     5 C     0.000065  0.000059 -0.000109
     6 C    -0.000127  0.000002  0.000110
     7 C     0.000192 -0.000149  0.000122
     8 N     0.000751 -0.000321 -0.000501
     9 N     0.000036  0.000294  0.000292
    10 C    -0.000132 -0.000026  0.000370
    11 C    -0.000068  0.000239 -0.000000
    12 O    -0.000034 -0.000049  0.000014
    13 H     0.000019  0.000020  0.000035
    14 H    -0.000086  0.000023  0.000007
    15 H    -0.000025 -0.000011 -0.000084
    16 H    -0.000006  0.000021 -0.000106
    17 H     0.000021 -0.000008 -0.000058
    18 H     0.000063 -0.000116  0.000004
    19 H     0.000023 -0.000011  0.000027
    20 H     0.000072 -0.000070  0.000008
 ----------------------------------------

 dE(predicted):    -0.15775E-05, dE(actual):    -0.55648E-05, Trust radius:    0.147961, all in a.u.
 
----------------------------------------------------------------------
Geometry Convergence after Step  21       (Hartree/Angstrom,Angstrom)
----------------------------------------------------------------------
current energy                               -4.62413401 Hartree
energy change                      -0.00000556     0.00020000    T
constrained gradient max            0.00076027     0.00010000    F
constrained gradient rms            0.00018573     0.00006667    F
gradient max                        0.00076027
gradient rms                        0.00018573
cart. step max                      0.01139032     0.01000000    F
cart. step rms                      0.00397188     0.00666667    T
 

--------
Geometry
--------
Formula: C9H8N2O
Atoms
  Index Symbol   x (angstrom)   y (angstrom)   z (angstrom)
      1      C     0.57755347    -0.71406893    -1.25576523
      2      C     1.98246398    -0.63189122    -1.10417468
      3      C     2.72769648     0.30140216    -1.86682463
      4      C     4.11206447     0.36946810    -1.71838151
      5      C     4.77429091    -0.47459075    -0.81704272
      6      C     4.04116266    -1.39775425    -0.05944678
      7      C     2.65634187    -1.48208293    -0.19367010
      8      N    -0.58619824    -0.77777516    -1.40658058
      9      N    -1.83189116    -0.72865223    -1.68139153
     10      C    -2.68813167    -1.61065922    -0.96824839
     11      C    -2.05793392    -2.53488639     0.07521676
     12      O    -3.88684284    -1.60103505    -1.20861870
     13      H     2.21250812     0.95606912    -2.56466767
     14      H     4.67765089     1.08689986    -2.30922126
     15      H     5.85478878    -0.41472139    -0.70722791
     16      H     4.55170951    -2.05653934     0.63986678
     17      H     2.08671790    -2.19788558     0.39320152
     18      H    -1.31606019    -3.19838227    -0.38889941
     19      H    -2.84708692    -3.13474878     0.53233576
     20      H    -1.54268412    -1.95335575     0.85128029

Total System Charge              0.00000

 *** GO1_GOStep22 ***

 Energy gradients wrt nuclear displacements
 ==========================================

     Atom      Cartesian (a.u./angstrom)
                 X         Y         Z
 ----------------------------------------
     1 C     0.000400 -0.000152  0.000143
     2 C     0.000051  0.000063  0.000116
     3 C     0.000080  0.000034  0.000060
     4 C     0.000049 -0.000115 -0.000131
     5 C    -0.000076  0.000127 -0.000043
     6 C    -0.000053  0.000044  0.000014
     7 C     0.000060  0.000083 -0.000050
     8 N    -0.000680 -0.000243 -0.000506
     9 N     0.000281  0.000313  0.000175
    10 C    -0.000118 -0.000123  0.000189
    11 C    -0.000049  0.000012  0.000052
    12 O     0.000002  0.000004  0.000090
    13 H    -0.000034  0.000025 -0.000014
    14 H    -0.000011  0.000023 -0.000026
    15 H     0.000003 -0.000003 -0.000071
    16 H     0.000044 -0.000061 -0.000090
    17 H    -0.000025  0.000007 -0.000022
    18 H    -0.000013 -0.000028  0.000041
    19 H     0.000037 -0.000015  0.000054
    20 H     0.000055  0.000005  0.000019
 ----------------------------------------

 dE(predicted):    -0.13612E-05, dE(actual):     0.43032E-05, Trust radius:    0.020000, all in a.u.
 
----------------------------------------------------------------------
Geometry Convergence after Step  22       (Hartree/Angstrom,Angstrom)
----------------------------------------------------------------------
current energy                               -4.62412970 Hartree
energy change                       0.00000430     0.00020000    T
constrained gradient max            0.00067112     0.00010000    F
constrained gradient rms            0.00015109     0.00006667    F
gradient max                        0.00067112
gradient rms                        0.00015109
cart. step max                      0.00493976     0.01000000    T
cart. step rms                      0.00151378     0.00666667    T
 

--------
Geometry
--------
Formula: C9H8N2O
Atoms
  Index Symbol   x (angstrom)   y (angstrom)   z (angstrom)
      1      C     0.57740590    -0.71271698    -1.25263556
      2      C     1.98256298    -0.63151867    -1.10281814
      3      C     2.72752679     0.30117970    -1.86662515
      4      C     4.11198797     0.36882802    -1.71930546
      5      C     4.77473347    -0.47537697    -0.81843712
      6      C     4.04194567    -1.39777945    -0.05971197
      7      C     2.65693114    -1.48174015    -0.19286803
      8      N    -0.58639200    -0.77589072    -1.40373059
      9      N    -1.83183837    -0.72726537    -1.67977501
     10      C    -2.68826100    -1.61086679    -0.96906611
     11      C    -2.05859238    -2.53534906     0.07455193
     12      O    -3.88661513    -1.60217411    -1.21126249
     13      H     2.21188400     0.95537979    -2.56459860
     14      H     4.67754576     1.08535984    -2.31130215
     15      H     5.85533096    -0.41561394    -0.70935962
     16      H     4.55270822    -2.05558444     0.64040798
     17      H     2.08755668    -2.19685796     0.39510083
     18      H    -1.31325739    -3.19572908    -0.38830214
     19      H    -2.84741942    -3.13814832     0.52834083
     20      H    -1.54762387    -1.95332534     0.85313656

Total System Charge              0.00000

 *** GO1_GOStep23 ***

 Energy gradients wrt nuclear displacements
 ==========================================

     Atom      Cartesian (a.u./angstrom)
                 X         Y         Z
 ----------------------------------------
     1 C     0.000611 -0.000181  0.000205
     2 C     0.000037 -0.000027  0.000190
     3 C     0.000194  0.000083  0.000031
     4 C    -0.000047  0.000013  0.000034
     5 C    -0.000099 -0.000009 -0.000126
     6 C     0.000030  0.000052 -0.000055
     7 C    -0.000032  0.000078 -0.000238
     8 N    -0.000879 -0.000106 -0.000381
     9 N     0.000205  0.000155  0.000180
    10 C    -0.000113 -0.000060  0.000106
    11 C     0.000017 -0.000076  0.000012
    12 O     0.000017  0.000005  0.000080
    13 H    -0.000063 -0.000011 -0.000060
    14 H     0.000027 -0.000005 -0.000058
    15 H     0.000022  0.000008 -0.000054
    16 H     0.000051  0.000003  0.000017
    17 H    -0.000025 -0.000001 -0.000013
    18 H    -0.000036  0.000022  0.000045
    19 H     0.000033  0.000002  0.000058
    20 H     0.000049  0.000056  0.000028
 ----------------------------------------

 dE(predicted):    -0.69190E-06, dE(actual):     0.19969E-05, Trust radius:    0.020000, all in a.u.
 
----------------------------------------------------------------------
Geometry Convergence after Step  23       (Hartree/Angstrom,Angstrom)
[...]
                                   10.08%     2 S             -18.450  2.00    10 N
                                    9.72%     1 S              -6.532  1.00    16 H
                                    9.65%     2 S             -13.620  2.00     2 C
                                    8.05%     1 S              -6.532  1.00    17 H
                                   -7.42%     2 S               2.394  0.00    16 H
                                    6.13%     2 S               2.394  0.00    15 H
                                    6.10%     1 S              -6.532  1.00    14 H
                                    5.46%     2 P:z             4.589  0.00     9 C
                                    4.73%     1 P:z            -5.239  0.67     8 C
                                   -4.54%     2 S               2.394  0.00    14 H
                                    4.17%     2 S             -18.450  2.00    11 N
                                   -3.93%     3 S              10.158  0.00     2 C
                                    3.89%     2 S               2.394  0.00    13 H
                                    3.85%     1 P:x            -7.062  1.00    11 N
                                   -3.78%     3 S              14.073  0.00    11 N
                                    3.64%     1 S              -6.532  1.00    15 H
                                   -3.33%     3 S              10.158  0.00     1 C
                                   -2.97%     3 S              10.158  0.00     7 C
                                    2.86%     1 P:y            -5.239  0.67     8 C
                                   -2.85%     3 S              14.073  0.00    10 N
                                   -2.74%     2 P:z             4.589  0.00     4 C
                                   -2.62%     2 P:x             4.589  0.00     6 C
                                    2.55%     2 S             -13.620  2.00     7 C
                                   -2.27%     2 P:y             4.589  0.00     6 C
                                    2.19%     2 P:y             4.589  0.00     9 C
                                    2.12%     2 P:x             4.589  0.00     9 C
                                    2.03%     1 P:x            -5.239  0.67     5 C
                                    2.00%     1 P:x            -5.239  0.67     2 C
                                   -1.87%     2 P:x             4.589  0.00     2 C
                                    1.84%     1 P:y            -5.239  0.67     6 C
                                    1.84%     1 P:y            -5.239  0.67     9 C
                                    1.79%     1 P:x            -5.239  0.67     7 C
                                    1.48%     2 P:z             4.589  0.00     8 C
                                    1.28%     2 P:z             4.589  0.00     3 C
                                    1.26%     2 P:x             4.589  0.00     8 C
                                   -1.26%     1 P:x            -5.239  0.67     6 C
                                    1.23%     1 P:z            -5.239  0.67     9 C
                                    1.23%     1 S              -6.532  1.00    20 H
                                    1.20%     1 P:y            -5.239  0.67     2 C
                                   -1.16%     3 S              10.158  0.00     9 C
                                    1.13%     2 P:x             7.649  0.00    10 N
                                    1.08%     1 D:x2-y2        34.005  0.00    10 N
                                   -1.08%     3 S              10.158  0.00     8 C
                                   -1.08%     2 S             -13.620  2.00     8 C
                                    1.04%     2 P:x             4.589  0.00     3 C
                                    1.04%     1 P:x            -5.239  0.67     3 C
                                    1.03%     1 D:x2-y2        33.824  0.00     1 C

 Energy gradients wrt nuclear displacements
 ==========================================

     Atom      Cartesian (a.u./angstrom)
                 X         Y         Z
 ----------------------------------------
     1 C    -0.000006 -0.000005  0.000004
     2 C     0.000012 -0.000046  0.000038
     3 C     0.000034  0.000027 -0.000033
     4 C    -0.000047  0.000019 -0.000062
     5 C    -0.000007 -0.000040 -0.000005
     6 C     0.000053  0.000022 -0.000058
     7 C    -0.000035  0.000030 -0.000030
     8 N    -0.000044 -0.000004 -0.000006
     9 N     0.000003 -0.000014  0.000060
    10 C     0.000039 -0.000014  0.000078
    11 C    -0.000057  0.000059 -0.000004
    12 O    -0.000015 -0.000001  0.000062
    13 H    -0.000029 -0.000002 -0.000015
    14 H    -0.000016 -0.000007 -0.000038
    15 H     0.000000  0.000009 -0.000063
    16 H     0.000010 -0.000002 -0.000036
    17 H     0.000022 -0.000000 -0.000013
    18 H     0.000025 -0.000018  0.000035
    19 H     0.000027 -0.000004  0.000046
    20 H     0.000032 -0.000006  0.000040
 ----------------------------------------



 =======================================================================
 Electrostatic potential at the Nuclei due to electrons and other nuclei
 =======================================================================
  
         Atom                  Potential
         ----                  ---------
     1)   C                  14.71033408
     2)   C                  14.71658641
     3)   C                  14.75103105
     4)   C                  14.75691351
     5)   C                  14.75802901
     6)   C                  14.75667289
     7)   C                  14.75033129
     8)   N                  18.29502188
     9)   N                  18.38852727
    10)   C                  14.69156254
    11)   C                  14.77945677
    12)   O                  22.43312092
    13)   H                   1.07430334
    14)   H                   1.07967845
    15)   H                   1.08081596
    16)   H                   1.07905714
    17)   H                   1.07276136
    18)   H                   1.09353312
    19)   H                   1.10621878
    20)   H                   1.09337019
 Mulliken charges used for AMS results%charges...


    =====================
     CALCULATION RESULTS
    =====================

Energy (hartree)            -4.62411231

Gradients (hartree/bohr)
  Index   Atom            d/dx            d/dy            d/dz
      1      C   -0.0000033374   -0.0000027815    0.0000020187
      2      C    0.0000064431   -0.0000240980    0.0000199027
      3      C    0.0000182122    0.0000142166   -0.0000175045
      4      C   -0.0000250008    0.0000101860   -0.0000329123
      5      C   -0.0000038180   -0.0000212458   -0.0000029010
      6      C    0.0000277992    0.0000115686   -0.0000304832
      7      C   -0.0000185532    0.0000159009   -0.0000158443
      8      N   -0.0000233018   -0.0000022436   -0.0000030867
      9      N    0.0000017435   -0.0000075386    0.0000319311
     10      C    0.0000206479   -0.0000076524    0.0000410789
     11      C   -0.0000302099    0.0000310098   -0.0000021718
     12      O   -0.0000079683   -0.0000006971    0.0000329804
     13      H   -0.0000155736   -0.0000010925   -0.0000078308
     14      H   -0.0000086216   -0.0000038442   -0.0000198497
     15      H    0.0000001154    0.0000045958   -0.0000335998
     16      H    0.0000055096   -0.0000013007   -0.0000192065
     17      H    0.0000117627   -0.0000002419   -0.0000067521
     18      H    0.0000129741   -0.0000094535    0.0000187586
     19      H    0.0000144194   -0.0000018587    0.0000241938
     20      H    0.0000167574   -0.0000034293    0.0000212785


--------------
Atomic charges
--------------
  Index   Atom    Charge
      1      C    0.0892
      2      C   -0.0127
      3      C    0.2203
      4      C    0.2310
      5      C    0.2206
      6      C    0.2290
      7      C    0.2234
      8      N    0.0429
      9      N   -0.2276
     10      C    0.4505
     11      C    0.5515
     12      O   -0.5108
     13      H   -0.1755
     14      H   -0.2081
     15      H   -0.2009
     16      H   -0.2090
     17      H   -0.1885
     18      H   -0.1672
     19      H   -0.1907
     20      H   -0.1673


Dipole moment vector    (Debye):     7.54298965   -0.43433976    1.68720416
              magnitude (Debye):     7.74157618


-----------------------
Molecular orbitals info
-----------------------
n orbitals:              400
n spin:                    1

Note: only printing virtual orbitals with
      energy smaller than HOMO + 100. eV

HOMO (eV):              -5.6124
LUMO (eV):              -2.7682
HOMO-LUMO gap (eV):      2.8442

   Index   Energy (eV)    Occupation
     251       94.1576         0.000       
     250       94.0227         0.000       
     249       92.9178         0.000       
     248       92.8068         0.000       
     247       91.9820         0.000       
     246       91.7059         0.000       
     245       91.5415         0.000       
     244       90.4516         0.000       
     243       90.1074         0.000       
     242       89.9927         0.000       
     241       88.2599         0.000       
     240       88.0490         0.000       
     239       87.7820         0.000       
     238       86.0461         0.000       
     237       85.2998         0.000       
     236       85.1902         0.000       
     235       84.5591         0.000       
     234       84.0053         0.000       
     233       83.1385         0.000       
     232       82.0519         0.000       
     231       81.4275         0.000       
     230       81.0424         0.000       
     229       80.7000         0.000       
     228       79.5049         0.000       
     227       79.4523         0.000       
     226       79.1433         0.000       
     225       78.6815         0.000       
     224       77.7886         0.000       
     223       77.5907         0.000       
     222       77.1840         0.000       
     221       76.8865         0.000       
     220       76.6362         0.000       
     219       76.3082         0.000       
     218       74.5529         0.000       
     217       74.4423         0.000       
     216       73.6650         0.000       
     215       73.3202         0.000       
     214       73.0388         0.000       
     213       72.4434         0.000       
     212       72.1337         0.000       
     211       71.0228         0.000       
     210       70.8578         0.000       
     209       70.4895         0.000       
     208       68.6486         0.000       
     207       68.1585         0.000       
     206       67.3406         0.000       
     205       66.9618         0.000       
     204       66.4824         0.000       
     203       65.5847         0.000       
     202       65.2183         0.000       
     201       63.8246         0.000       
     200       63.6639         0.000       
     199       63.1080         0.000       
     198       62.5071         0.000       
     197       61.9956         0.000       
     196       61.4274         0.000       
     195       61.3579         0.000       
     194       60.8184         0.000       
     193       60.0739         0.000       
     192       59.7019         0.000       
     191       58.4591         0.000       
     190       58.2083         0.000       
     189       56.9099         0.000       
     188       56.1091         0.000       
     187       54.4662         0.000       
     186       54.2889         0.000       
     185       54.1720         0.000       
     184       53.8506         0.000       
     183       53.7296         0.000       
     182       52.5663         0.000       
     181       52.3876         0.000       
     180       51.6960         0.000       
     179       51.1024         0.000       
     178       50.8522         0.000       
     177       50.1015         0.000       
     176       49.7223         0.000       
     175       49.3717         0.000       
     174       49.3689         0.000       
     173       48.5772         0.000       
     172       47.8773         0.000       
     171       47.2840         0.000       
     170       46.8742         0.000       
     169       46.8342         0.000       
     168       45.7406         0.000       
     167       45.5805         0.000       
     166       44.2343         0.000       
     165       43.6616         0.000       
     164       42.9978         0.000       
     163       42.1618         0.000       
     162       41.5897         0.000       
     161       40.5331         0.000       
     160       40.1248         0.000       
     159       39.6358         0.000       
     158       39.5537         0.000       
     157       39.5475         0.000       
     156       38.9240         0.000       
     155       38.0524         0.000       
     154       37.5076         0.000       
     153       37.3616         0.000       
     152       36.4963         0.000       
     151       35.9977         0.000       
     150       35.5118         0.000       
     149       35.4923         0.000       
     148       34.9175         0.000       
     147       34.5778         0.000       
     146       34.4554         0.000       
     145       34.2637         0.000       
     144       33.9949         0.000       
     143       33.3295         0.000       
     142       32.8739         0.000       
     141       31.7993         0.000       
     140       31.0534         0.000       
     139       30.7616         0.000       
     138       30.2967         0.000       
     137       30.1578         0.000       
     136       29.6560         0.000       
     135       29.3783         0.000       
     134       28.4942         0.000       
     133       28.3322         0.000       
     132       27.7010         0.000       
     131       27.5548         0.000       
     130       27.2339         0.000       
     129       26.9570         0.000       
     128       26.6261         0.000       
     127       26.0214         0.000       
     126       25.8474         0.000       
     125       25.5130         0.000       
     124       24.9984         0.000       
     123       24.9267         0.000       
     122       24.5223         0.000       
     121       23.8891         0.000       
     120       23.3498         0.000       
     119       22.6071         0.000       
     118       22.4301         0.000       
     117       21.6709         0.000       
     116       21.4429         0.000       
     115       20.9314         0.000       
     114       20.5772         0.000       
     113       20.2218         0.000       
     112       20.0257         0.000       
     111       19.5046         0.000       
     110       18.9898         0.000       
     109       18.7715         0.000       
     108       17.9210         0.000       
     107       17.7908         0.000       
     106       17.1544         0.000       
     105       16.8395         0.000       
     104       16.7331         0.000       
     103       16.6391         0.000       
     102       15.3766         0.000       
     101       15.2703         0.000       
     100       14.6628         0.000       
      99       14.4237         0.000       
      98       13.3092         0.000       
      97       13.1184         0.000       
      96       13.0211         0.000       
      95       12.5412         0.000       
      94       12.4519         0.000       
      93       11.5456         0.000       
      92       11.4098         0.000       
      91       11.2813         0.000       
      90       10.8800         0.000       
      89       10.6280         0.000       
      88       10.3437         0.000       
      87        9.9941         0.000       
      86        9.4217         0.000       
      85        9.2808         0.000       
      84        8.9750         0.000       
      83        8.7404         0.000       
      82        8.4812         0.000       
      81        8.3373         0.000       
      80        8.2051         0.000       
      79        7.8249         0.000       
      78        7.7541         0.000       
      77        7.7052         0.000       
      76        7.5706         0.000       
      75        7.1523         0.000       
      74        6.8632         0.000       
      73        6.4576         0.000       
      72        6.0028         0.000       
      71        5.9804         0.000       
      70        5.8166         0.000       
      69        5.0969         0.000       
      68        4.8038         0.000       
      67        4.7152         0.000       
      66        4.6429         0.000       
      65        4.5983         0.000       
      64        4.4659         0.000       
      63        4.3697         0.000       
      62        3.8297         0.000       
      61        3.2798         0.000       
      60        3.2314         0.000       
      59        3.1142         0.000       
      58        2.5475         0.000       
      57        2.3518         0.000       
      56        2.2606         0.000       
      55        1.8661         0.000       
      54        1.2879         0.000       
      53        1.2215         0.000       
      52        1.1119         0.000       
      51        0.5837         0.000       
      50        0.5224         0.000       
      49        0.0681         0.000       
      48       -0.2143         0.000       
      47       -0.7135         0.000       
      46       -0.7640         0.000       
      45       -1.5813         0.000       
      44       -1.9861         0.000       
      43       -2.7682         0.000 < LUMO
      42       -5.6124         2.000 < HOMO
      41       -5.6423         2.000       
      40       -6.9684         2.000       
      39       -7.1008         2.000       
      38       -7.5781         2.000       
      37       -8.6929         2.000       
      36       -9.1594         2.000       
      35       -9.4708         2.000       
      34       -9.6601         2.000       
      33       -9.8479         2.000       
      32       -9.9011         2.000       
      31      -10.6055         2.000       
      30      -11.0808         2.000       
      29      -11.3786         2.000       
      28      -11.4184         2.000       
      27      -11.8775         2.000       
      26      -11.8944         2.000       
      25      -12.1740         2.000       
      24      -12.6457         2.000       
      23      -14.1670         2.000       
      22      -15.7036         2.000       
      21      -15.7618         2.000       
      20      -16.5511         2.000       
      19      -18.2577         2.000       
      18      -19.2409         2.000       
      17      -19.6986         2.000       
      16      -21.7993         2.000       
      15      -22.3736         2.000       
      14      -25.3672         2.000       
      13      -26.6191         2.000       
      12     -270.1887         2.000       
      11     -270.8747         2.000       
      10     -270.9081         2.000       
       9     -270.9165         2.000       
       8     -271.0671         2.000       
       7     -271.0826         2.000       
       6     -271.9198         2.000       
       5     -272.2283         2.000       
       4     -272.6692         2.000       
       3     -382.5557         2.000       
       2     -384.9116         2.000       
       1     -510.6092         2.000       

AMS application finished. Exiting.
NORMAL TERMINATION
     Total cpu time:    1960.41
  Total system time:       6.91
 Total elapsed time:    1977.92
NORMAL TERMINATION
