
 *******************************************************************************
 *                                                                             *
 *  --------------------------------                                           *
 *   Amsterdam Modeling Suite (AMS)              2026.103                      *
 *  --------------------------------                                           *
 *                                               r260501 2026-05-01 873454b5   *
 *                                                                             *
 *                                                                             *
 *                              =================                              *
 *                              |               |                              *
 *                              |     A M S     |                              *
 *                              |               |                              *
 *                              =================                              *
 *                                                                             *
 *                                                                             *
 *   Online information and documentation:  https://www.scm.com/support/       *
 *   E-mail:  support@scm.com   info@scm.com                                   *
 *                                                                             *
 *   Scientific publications using AMS results must be properly referenced     *
 *   See the User Manuals (or the web site) for recommended citations          *
 *   The terms and conditions of the End User License Agreement apply to       *
 *   the use of AMS, https://www.scm.com/license-terms/                        *
 *                                                                             *
 **********************  x86_64_linux_intel / intelmpi  ************************
 
 Licensed to: Jong-June Jeon / University of Seoul 2026-05-13 16:10:32
 SCM User ID: u30731
  
 AMS 2026.103  RunTime: May30-2026 09:46:34  ShM Nodes: 1  Procs: 1

 AMS jobname: c5_fragB_opt
 AMS jobid  : 991033207

 Start   directory: /gpfs/home1/yeseo1ee/projects/eda-asm-prediction/adf_outputs/batch_000/dipolar_000531/
 Results directory: /gpfs/home1/yeseo1ee/projects/eda-asm-prediction/adf_outputs/batch_000/dipolar_000531/c5_fragB_opt.results/
 Scratch directory: /tmp/amstmp_c5_fragB_opt_kid0.991033207/

 RNG seed: 1056272725 876574660 -1606949645 2077125309 1283715334 2111832531 1929513772 1295425148



                      ************************************************************************
                      *  ADF 2026.103  RunTime: May30-2026 09:46:34  ShM Nodes: 1  Procs: 1  *
                      ************************************************************************
  

       ***************************
       *  GEOMETRY OPTIMIZATION  *
       ***************************

Optimization Method                    Quasi Newton
Optimization Coordinates               Delocalized Coordinates
Optimize lattice                       F
 
 ------------------------------------------------------
 Convergence criteria (Hartree,Angstrom)
 ------------------------------------------------------
 Maximum gradient               0.000100000000
 Maximum rms gradient           0.000066666667
 Maximum step allowed           0.010000000000
 Maximum rms step allowed       0.006666666667
 Maximum energy change allowe   0.000160000000
 Maximum stress energy allowe   0.000500000000
 
Initial model Hessian                  Automatic Hessian
 
------------------------------------
Quasi-Newton Optimizer Parameters
------------------------------------
Hessian Update Method                  BFGS
Maximum number of steps                  200
First GDIIS cycle                          0
Maximum GDIIS vectors                      0
Trust radius (bohr)                        0.200000
Trust radius varies                        T
Constraints converged at all steps         T
Use projector                              T
 
 Rigid motions settings for: old optimizer
 Atomic rotations (x,y,z):     T T T
 Atomic translations (x,y,z):  T T T
 Tolerance:                  1.000000000000000E-006

--------
Geometry
--------
Formula: C8H5N3
Atoms
  Index Symbol   x (angstrom)   y (angstrom)   z (angstrom)
      1      C     0.81930000    -0.83743000     0.65595000
      2      C     1.90572000     0.08050000     0.76158000
      3      C     1.79277000     1.23439000     1.56308000
      4      C     2.83354000     2.15846000     1.58342000
      5      C     3.97521000     1.94867000     0.80037000
      6      C     4.08518000     0.80762000    -0.00297000
      7      C     3.05576000    -0.12937000    -0.02973000
      8      N     0.39228000    -1.96107000     0.69497000
      9      N    -0.56516000    -2.65540000     0.15065000
     10      C    -1.22256000    -3.52419000     0.89949000
     11      N    -1.90011000    -4.31582000     1.43741000
     12      H     0.89077000     1.39211000     2.15517000
     13      H     2.75385000     3.05094000     2.20705000
     14      H     4.78454000     2.68210000     0.81406000
     15      H     4.97645000     0.65032000    -0.61365000
     16      H     3.11885000    -1.01601000    -0.66206000

Total System Charge              0.00000


----------------
ADF Engine Input
----------------
 
   Basis
     Type TZ2P
     Core None
   End
   XC
     GGA BLYP
     Dispersion GRIMME3 BJDAMP
   End
   Symmetry NOSYM
   NumericalQuality Normal
   Unrestricted No
   SCF
     Iterations 200
     Converge 1.0e-6
   End
   Save TAPE21
 

 Title: *** (NO TITLE) ***

Challenging geometry: could not add a dihedral for atom   11
 Using automatic Hessian for delocalized coordinates.
 *** GO1_GOStep1 ***

 Energy gradients wrt nuclear displacements
 ==========================================

     Atom      Cartesian (a.u./angstrom)
                 X         Y         Z
 ----------------------------------------
     1 C    -0.050940 -0.006326 -0.043106
     2 C     0.015708  0.013535  0.013125
     3 C     0.004525 -0.005995 -0.005397
     4 C     0.000165 -0.004878 -0.005898
     5 C    -0.007070 -0.006961 -0.001083
     6 C    -0.005606  0.003339  0.005591
     7 C    -0.008708  0.000075  0.007158
     8 N     0.049729 -0.046412  0.035991
     9 N    -0.006275  0.034115  0.004669
    10 C    -0.000331  0.010774 -0.006137
    11 N     0.005911  0.005465 -0.004383
    12 H    -0.003425  0.000756  0.002890
    13 H    -0.000535  0.003837  0.002769
    14 H     0.003681  0.003281  0.000126
    15 H     0.003549 -0.000942 -0.002857
    16 H    -0.000378 -0.003665 -0.003457
 ----------------------------------------
 
----------------------------------------------------------------------
Geometry Convergence after Step   1       (Hartree/Angstrom,Angstrom)
----------------------------------------------------------------------
current energy                               -3.90673078 Hartree
energy change                      -3.90673078     0.00016000    F
constrained gradient max            0.05093148     0.00010000    F
constrained gradient rms            0.01648231     0.00006667    F
gradient max                        0.05093225
gradient rms                        0.01648231
cart. step max                      0.12672106     0.01000000    F
cart. step rms                      0.05422200     0.00666667    F
 

--------
Geometry
--------
Formula: C8H5N3
Atoms
  Index Symbol   x (angstrom)   y (angstrom)   z (angstrom)
      1      C     0.75321842    -0.75732839     0.57930207
      2      C     1.86749262     0.12042667     0.70908690
      3      C     1.77784552     1.26679343     1.53072306
      4      C     2.85098124     2.15303783     1.59958298
      5      C     4.00688898     1.92140323     0.84190964
      6      C     4.09762214     0.79329922     0.01541906
      7      C     3.03717769    -0.10765303    -0.05757957
      8      N     0.27570686    -1.86989759     0.60146775
      9      N    -0.60947924    -2.71113835     0.12027333
     10      C    -1.17204301    -3.58471939     0.95136194
     11      N    -1.77338894    -4.39186407     1.56015042
     12      H     0.86970492     1.44378821     2.10354844
     13      H     2.78582408     3.03196524     2.23979944
     14      H     4.83874154     2.62363192     0.89359958
     15      H     4.99801289     0.61741073    -0.57226724
     16      H     3.09208428    -0.98333567    -0.70158778

Total System Charge              0.00000

 *** GO1_GOStep2 ***

 Energy gradients wrt nuclear displacements
 ==========================================

     Atom      Cartesian (a.u./angstrom)
                 X         Y         Z
 ----------------------------------------
     1 C    -0.001596  0.053802 -0.027826
     2 C     0.003356 -0.000682  0.011497
     3 C     0.001719 -0.001283 -0.001079
     4 C    -0.001000 -0.001004 -0.002227
     5 C    -0.002640 -0.002695 -0.000942
     6 C    -0.000968  0.001003  0.001138
     7 C    -0.001596  0.000217  0.001371
     8 N     0.028944 -0.047669  0.031285
     9 N    -0.029831 -0.006671 -0.005838
    10 C     0.007358  0.009056 -0.012570
    11 N    -0.005792 -0.005648  0.004980
    12 H    -0.001211  0.000067  0.001387
    13 H    -0.000016  0.001615  0.001097
    14 H     0.001785  0.001394  0.000169
    15 H     0.001686 -0.000258 -0.001065
    16 H    -0.000197 -0.001242 -0.001377
 ----------------------------------------

 dE(predicted):    -0.71661E-02, dE(actual):    -0.75982E-02, Trust radius:    0.400000, all in a.u.
 
----------------------------------------------------------------------
Geometry Convergence after Step   2       (Hartree/Angstrom,Angstrom)
----------------------------------------------------------------------
current energy                               -3.91432902 Hartree
energy change                      -0.00759824     0.00016000    F
constrained gradient max            0.05378762     0.00010000    F
constrained gradient rms            0.01392872     0.00006667    F
gradient max                        0.05378639
gradient rms                        0.01392872
cart. step max                      0.18136143     0.01000000    F
cart. step rms                      0.06415630     0.00666667    F
 

--------
Geometry
--------
Formula: C8H5N3
Atoms
  Index Symbol   x (angstrom)   y (angstrom)   z (angstrom)
      1      C     0.71938883    -0.74737861     0.50016283
      2      C     1.82616821     0.14031540     0.62025653
      3      C     1.74299094     1.25734192     1.48632741
      4      C     2.83904620     2.10692111     1.63452346
      5      C     4.00968075     1.88567605     0.89620791
      6      C     4.09167646     0.79771008     0.01471018
      7      C     3.01524620    -0.07691273    -0.12498925
      8      N     0.23603257    -1.82579570     0.49736995
      9      N    -0.48178836    -2.82692474     0.09077258
     10      C    -1.10351084    -3.54687520     1.03372164
     11      N    -1.74011770    -4.22940493     1.74151185
     12      H     0.82734337     1.42903235     2.04421857
     13      H     2.77758641     2.95112756     2.31618472
     14      H     4.85477937     2.56073305     1.00440778
     15      H     5.00235018     0.62514945    -0.55304008
     16      H     3.07951744    -0.93489505    -0.78755608

Total System Charge              0.00000

 *** GO1_GOStep3 ***

 Energy gradients wrt nuclear displacements
 ==========================================

     Atom      Cartesian (a.u./angstrom)
                 X         Y         Z
 ----------------------------------------
     1 C    -0.018886 -0.001247 -0.009728
     2 C    -0.006431 -0.011207 -0.000935
     3 C    -0.001150  0.003220  0.001696
     4 C    -0.000590  0.000646  0.003085
     5 C     0.001747  0.000720  0.000273
     6 C     0.002618 -0.001068 -0.002340
     7 C     0.004893  0.001759 -0.003232
     8 N     0.030141  0.014102  0.021301
     9 N    -0.015048 -0.007137 -0.009040
    10 C     0.003548 -0.002982  0.000854
    11 N    -0.000553  0.004120 -0.002891
    12 H     0.000954 -0.000712 -0.000538
    13 H     0.000336 -0.000799 -0.000749
    14 H    -0.000914 -0.000377 -0.000306
    15 H    -0.000549  0.000374  0.001018
    16 H    -0.000116  0.000588  0.001531
 ----------------------------------------

 dE(predicted):    -0.40299E-02, dE(actual):    -0.51396E-02, Trust radius:    0.800000, all in a.u.
 
----------------------------------------------------------------------
Geometry Convergence after Step   3       (Hartree/Angstrom,Angstrom)
----------------------------------------------------------------------
current energy                               -3.91946862 Hartree
energy change                      -0.00513960     0.00016000    F
constrained gradient max            0.03014736     0.00010000    F
constrained gradient rms            0.00746709     0.00006667    F
gradient max                        0.03015293
gradient rms                        0.00746711
cart. step max                      0.20785508     0.01000000    F
cart. step rms                      0.04534863     0.00666667    F
 

--------
Geometry
--------
Formula: C8H5N3
Atoms
  Index Symbol   x (angstrom)   y (angstrom)   z (angstrom)
      1      C     0.69153694    -0.72400555     0.46272799
      2      C     1.81401161     0.14147669     0.61500521
      3      C     1.73378330     1.25751499     1.48161585
      4      C     2.83459098     2.09999687     1.63620994
      5      C     4.01351149     1.86102076     0.91806453
      6      C     4.09225496     0.76906781     0.04109028
      7      C     3.00759785    -0.09214425    -0.11415116
      8      N     0.15569026    -1.76949522     0.39360995
      9      N    -0.56238812    -2.77589573     0.04671309
     10      C    -1.06604217    -3.51920641     1.04769459
     11      N    -1.53226262    -4.25291887     1.83239928
     12      H     0.80869754     1.44942011     2.01632020
     13      H     2.77149827     2.94810833     2.31219560
     14      H     4.86604470     2.52371364     1.03767198
     15      H     5.00391504     0.58864582    -0.52173935
     16      H     3.06394997    -0.93947899    -0.79063798

Total System Charge              0.00000

 *** GO1_GOStep4 ***

 Energy gradients wrt nuclear displacements
 ==========================================

     Atom      Cartesian (a.u./angstrom)
                 X         Y         Z
 ----------------------------------------
     1 C    -0.014561 -0.004825 -0.007944
     2 C    -0.003923 -0.009842  0.001329
     3 C    -0.000191  0.001823  0.004109
     4 C    -0.000932  0.002074  0.000950
     5 C     0.002360  0.002348  0.000682
     6 C     0.001101 -0.001956 -0.001225
     7 C     0.004482 -0.000459 -0.002218
     8 N     0.015302  0.007690  0.007854
     9 N    -0.000546  0.002772 -0.003901
    10 C    -0.005118  0.000007  0.001981
    11 N     0.003889  0.000678 -0.000786
    12 H     0.000964  0.000008 -0.001387
    13 H     0.000335 -0.001307 -0.000960
    14 H    -0.001250 -0.001067  0.000107
    15 H    -0.001498  0.000597  0.000699
    16 H    -0.000415  0.001460  0.000710
 ----------------------------------------

 dE(predicted):    -0.15542E-02, dE(actual):    -0.11668E-02, Trust radius:    0.800000, all in a.u.
 
----------------------------------------------------------------------
Geometry Convergence after Step   4       (Hartree/Angstrom,Angstrom)
----------------------------------------------------------------------
current energy                               -3.92063546 Hartree
energy change                      -0.00116685     0.00016000    F
constrained gradient max            0.01534437     0.00010000    F
constrained gradient rms            0.00437929     0.00006667    F
gradient max                        0.01533775
gradient rms                        0.00437932
cart. step max                      0.21184369     0.01000000    F
cart. step rms                      0.05394295     0.00666667    F
 

--------
Geometry
--------
Formula: C8H5N3
Atoms
  Index Symbol   x (angstrom)   y (angstrom)   z (angstrom)
      1      C     0.75330580    -0.78986451     0.47159538
      2      C     1.85018698     0.11170787     0.62242225
      3      C     1.74756349     1.21507377     1.49940281
      4      C     2.82567796     2.08746742     1.64640216
      5      C     3.99746958     1.89275786     0.90475850
      6      C     4.09322104     0.81327639     0.01517174
      7      C     3.03447257    -0.08136408    -0.12756317
      8      N     0.20650683    -1.83201027     0.37828812
      9      N    -0.46566480    -2.87130958     0.06329431
     10      C    -1.11849500    -3.49017086     1.06571336
     11      N    -1.74410631    -4.10547562     1.84233913
     12      H     0.82920774     1.36793609     2.05903432
     13      H     2.74937535     2.92399477     2.33637255
     14      H     4.83295188     2.57879196     1.01782638
     15      H     5.00043434     0.66469977    -0.56516481
     16      H     3.10428257    -0.91969099    -0.81510302

Total System Charge              0.00000

 *** GO1_GOStep5 ***

 Energy gradients wrt nuclear displacements
 ==========================================

     Atom      Cartesian (a.u./angstrom)
                 X         Y         Z
 ----------------------------------------
     1 C    -0.003986  0.010919  0.000421
     2 C     0.003963 -0.002789  0.000232
     3 C    -0.000001  0.000725  0.000138
     4 C    -0.000066  0.001132  0.000312
     5 C     0.000502  0.001236  0.000554
     6 C    -0.000534 -0.001015 -0.000803
     7 C     0.001433 -0.000111  0.000912
     8 N    -0.005568 -0.018348 -0.002998
     9 N     0.007081  0.010487 -0.003486
    10 C    -0.000256 -0.001442  0.004728
    11 N    -0.001233  0.000056  0.000238
    12 H     0.000437 -0.000275 -0.000426
    13 H     0.000258 -0.000806 -0.000294
    14 H    -0.000676 -0.000781  0.000217
    15 H    -0.000845  0.000182  0.000426
    16 H    -0.000510  0.000829 -0.000172
 ----------------------------------------
 Rebuilding optimization coordinates
Challenging geometry: could not add a dihedral for atom   11

 dE(predicted):    -0.58526E-03, dE(actual):    -0.41609E-03, Trust radius:    0.800000, all in a.u.
 
----------------------------------------------------------------------
Geometry Convergence after Step   5       (Hartree/Angstrom,Angstrom)
----------------------------------------------------------------------
current energy                               -3.92105155 Hartree
energy change                      -0.00041609     0.00016000    F
constrained gradient max            0.01837578     0.00010000    F
constrained gradient rms            0.00394454     0.00006667    F
gradient max                        0.01837791
gradient rms                        0.00394455
cart. step max                      0.02623380     0.01000000    F
cart. step rms                      0.00872799     0.00666667    F
 

--------
Geometry
--------
Formula: C8H5N3
Atoms
  Index Symbol   x (angstrom)   y (angstrom)   z (angstrom)
      1      C     0.77128457    -0.80493044     0.47933434
      2      C     1.85763752     0.10967610     0.62287771
      3      C     1.75190198     1.20848583     1.50392268
      4      C     2.82553854     2.08703663     1.64638627
      5      C     3.99514672     1.90100060     0.89884731
      6      C     4.09562273     0.82172496     0.01029068
      7      C     3.03953303    -0.07693373    -0.13168470
      8      N     0.21123072    -1.83674458     0.38156283
      9      N    -0.47195198    -2.87457598     0.06973780
     10      C    -1.14012080    -3.48895942     1.06183694
     11      N    -1.77034011    -4.10333918     1.83521266
     12      H     0.83639808     1.35323142     2.07136510
     13      H     2.74522743     2.92518980     2.33495361
     14      H     4.82598965     2.59462178     1.00657229
     15      H     5.00500311     0.67446133    -0.56832462
     16      H     3.11828882    -0.92412510    -0.80810090

Total System Charge              0.00000

 *** GO1_GOStep6 ***

 Energy gradients wrt nuclear displacements
 ==========================================

     Atom      Cartesian (a.u./angstrom)
                 X         Y         Z
 ----------------------------------------
     1 C    -0.006131  0.005314  0.001153
     2 C     0.004671 -0.000004  0.000252
     3 C     0.000172 -0.000271 -0.000529
     4 C     0.000399 -0.000352  0.000313
     5 C    -0.000132  0.000050  0.000309
     6 C    -0.000408 -0.000260  0.000177
     7 C    -0.001007  0.000979 -0.000168
     8 N     0.002303 -0.006528 -0.004118
     9 N     0.002922  0.004675 -0.000821
    10 C    -0.003156 -0.003489  0.003240
    11 N     0.000327  0.000716 -0.000313
    12 H    -0.000034 -0.000199  0.000125
    13 H    -0.000058  0.000011 -0.000085
    14 H    -0.000094 -0.000088 -0.000041
    15 H     0.000060 -0.000137  0.000208
    16 H     0.000167 -0.000417  0.000297
 ----------------------------------------

 dE(predicted):    -0.12901E-03, dE(actual):    -0.17326E-03, Trust radius:    0.800000, all in a.u.
 
----------------------------------------------------------------------
Geometry Convergence after Step   6       (Hartree/Angstrom,Angstrom)
----------------------------------------------------------------------
current energy                               -3.92122482 Hartree
energy change                      -0.00017326     0.00016000    F
constrained gradient max            0.00655750     0.00010000    F
constrained gradient rms            0.00214966     0.00006667    F
gradient max                        0.00655779
gradient rms                        0.00214966
cart. step max                      0.04429431     0.01000000    F
cart. step rms                      0.01357610     0.00666667    F
 

--------
Geometry
--------
Formula: C8H5N3
Atoms
  Index Symbol   x (angstrom)   y (angstrom)   z (angstrom)
      1      C     0.79434820    -0.82800342     0.48807800
      2      C     1.87288943     0.09414634     0.63158277
      3      C     1.75815827     1.19371188     1.51072097
      4      C     2.82207747     2.08521396     1.64585252
      5      C     3.99031309     1.91165661     0.89294487
      6      C     4.09885730     0.83282740     0.00489922
      7      C     3.05409210    -0.08081284    -0.12742502
      8      N     0.22072198    -1.85109809     0.38867592
      9      N    -0.47126342    -2.88333750     0.07473182
     10      C    -1.16106248    -3.47849851     1.06051025
     11      N    -1.81463441    -4.07642121     1.82802542
     12      H     0.84257149     1.33119184     2.07995115
     13      H     2.73628592     2.92216557     2.33542854
     14      H     4.81363714     2.61516860     0.99589386
     15      H     5.00434494     0.69932545    -0.58331379
     16      H     3.13505297    -0.92141607    -0.81176650

Total System Charge              0.00000

 *** GO1_GOStep7 ***

 Energy gradients wrt nuclear displacements
 ==========================================

     Atom      Cartesian (a.u./angstrom)
                 X         Y         Z
 ----------------------------------------
     1 C    -0.006389  0.004463  0.001307
     2 C     0.004467  0.000119  0.000543
     3 C    -0.000019 -0.000615 -0.000601
     4 C     0.000153  0.000114 -0.000417
     5 C    -0.000326 -0.000061  0.000167
     6 C    -0.000212  0.000044  0.000022
     7 C    -0.000352 -0.000488  0.001312
     8 N     0.002558 -0.005711 -0.003726
     9 N     0.000844  0.002907  0.000851
    10 C    -0.000259 -0.001025  0.000645
    11 N    -0.000392  0.000161  0.000093
    12 H    -0.000168  0.000002  0.000018
    13 H     0.000044 -0.000040  0.000251
    14 H     0.000141 -0.000049  0.000117
    15 H     0.000048  0.000064 -0.000141
    16 H    -0.000139  0.000115 -0.000442
 ----------------------------------------

 dE(predicted):    -0.64258E-04, dE(actual):    -0.92337E-04, Trust radius:    0.800000, all in a.u.
 
----------------------------------------------------------------------
Geometry Convergence after Step   7       (Hartree/Angstrom,Angstrom)
----------------------------------------------------------------------
current energy                               -3.92131715 Hartree
energy change                      -0.00009234     0.00016000    T
constrained gradient max            0.00638471     0.00010000    F
constrained gradient rms            0.00177297     0.00006667    F
gradient max                        0.00638423
gradient rms                        0.00177297
cart. step max                      0.21709666     0.01000000    F
cart. step rms                      0.07084170     0.00666667    F
 

--------
Geometry
--------
Formula: C8H5N3
Atoms
  Index Symbol   x (angstrom)   y (angstrom)   z (angstrom)
      1      C     0.91757758    -0.94941177     0.51546303
      2      C     1.94283483     0.02520621     0.64766239
      3      C     1.78562753     1.11281882     1.53604374
      4      C     2.79935291     2.06381539     1.64919255
      5      C     3.95874064     1.96067089     0.86933103
      6      C     4.10873388     0.89394709    -0.02658205
      7      C     3.11574056    -0.07964546    -0.13866970
      8      N     0.27974514    -1.92899675     0.41761841
      9      N    -0.45023543    -2.94250954     0.11622226
     10      C    -1.26243591    -3.40800484     1.06647656
     11      N    -2.03173107    -3.89407113     1.80722475
     12      H     0.87669508     1.19873327     2.12618691
     13      H     2.68250401     2.89066304     2.34719546
     14      H     4.74331260     2.70983525     0.95911442
     15      H     5.00450366     0.81789039    -0.64030918
     16      H     3.22542399    -0.90512086    -0.83738058

Total System Charge              0.00000

 *** GO1_GOStep8 ***

 Energy gradients wrt nuclear displacements
 ==========================================

     Atom      Cartesian (a.u./angstrom)
                 X         Y         Z
 ----------------------------------------
     1 C    -0.006612  0.002125  0.002721
     2 C     0.002581  0.001044  0.001471
     3 C    -0.000518 -0.001586 -0.001299
     4 C    -0.000138  0.000584 -0.001155
     5 C    -0.000905 -0.000891 -0.000522
     6 C     0.000883  0.001444  0.000326
     7 C    -0.000681 -0.003049  0.002010
     8 N     0.005432 -0.003308 -0.003497
     9 N    -0.007553 -0.001704  0.007679
    10 C     0.009297  0.003180 -0.008474
    11 N    -0.002397  0.000342  0.001381
    12 H    -0.000469  0.000443  0.000059
    13 H     0.000131  0.000237  0.000925
    14 H     0.000812  0.000422  0.000349
    15 H     0.000461  0.000232 -0.000761
    16 H    -0.000323  0.000485 -0.001215
 ----------------------------------------

 dE(predicted):    -0.35892E-03, dE(actual):    -0.27927E-03, Trust radius:    0.800000, all in a.u.
 
----------------------------------------------------------------------
Geometry Convergence after Step   8       (Hartree/Angstrom,Angstrom)
----------------------------------------------------------------------
current energy                               -3.92159642 Hartree
energy change                      -0.00027927     0.00016000    F
constrained gradient max            0.00930718     0.00010000    F
constrained gradient rms            0.00303801     0.00006667    F
gradient max                        0.00930836
gradient rms                        0.00303801
cart. step max                      0.14064576     0.01000000    F
cart. step rms                      0.05394088     0.00666667    F
 

--------
Geometry
--------
Formula: C8H5N3
Atoms
  Index Symbol   x (angstrom)   y (angstrom)   z (angstrom)
      1      C     1.02384396    -1.04993507     0.52643907
      2      C     1.99906735    -0.03097122     0.64553598
      3      C     1.80601370     1.04155437     1.54698201
      4      C     2.77486831     2.03865158     1.65070596
      5      C     3.92789127     1.99442013     0.85578230
      6      C     4.11609116     0.94002840    -0.04700104
      7      C     3.16766120    -0.07734154    -0.15436797
      8      N     0.31594101    -1.97680460     0.43273040
      9      N    -0.46986123    -2.95519392     0.14445830
     10      C    -1.33923673    -3.33382341     1.07930599
     11      N    -2.15339496    -3.75342537     1.81295258
     12      H     0.90493695     1.08035115     2.15395432
     13      H     2.62662393     2.85723555     2.35260824
     14      H     4.67687342     2.77997674     0.93955175
     15      H     5.00893556     0.90610036    -0.66872302
     16      H     3.31013510    -0.89500316    -0.85612488

Total System Charge              0.00000

 *** GO1_GOStep9 ***

 Energy gradients wrt nuclear displacements
 ==========================================

     Atom      Cartesian (a.u./angstrom)
                 X         Y         Z
 ----------------------------------------
     1 C    -0.004946  0.000514  0.002099
     2 C    -0.001806  0.000310  0.001577
     3 C    -0.000366 -0.001379 -0.001222
     4 C    -0.000135  0.000158 -0.000743
     5 C    -0.000613 -0.001249 -0.000638
     6 C     0.000581  0.001869  0.000406
     7 C    -0.000103 -0.003234  0.000981
     8 N     0.010857  0.000384 -0.003157
     9 N    -0.012110 -0.002432  0.009996
    10 C     0.009497  0.003224 -0.010811
    11 N    -0.001667 -0.000486  0.001671
    12 H    -0.000346  0.000465  0.000336
    13 H    -0.000104  0.000553  0.000734
    14 H     0.000764  0.000791  0.000275
    15 H     0.000561  0.000088 -0.000552
    16 H    -0.000065  0.000423 -0.000953
 ----------------------------------------

 dE(predicted):    -0.19428E-03, dE(actual):    -0.24980E-03, Trust radius:    0.800000, all in a.u.
 
----------------------------------------------------------------------
Geometry Convergence after Step   9       (Hartree/Angstrom,Angstrom)
----------------------------------------------------------------------
current energy                               -3.92184622 Hartree
energy change                      -0.00024980     0.00016000    F
constrained gradient max            0.01216945     0.00010000    F
constrained gradient rms            0.00372186     0.00006667    F
gradient max                        0.01216802
gradient rms                        0.00372186
cart. step max                      0.17548188     0.01000000    F
cart. step rms                      0.05538962     0.00666667    F
 

--------
Geometry
--------
Formula: C8H5N3
Atoms
  Index Symbol   x (angstrom)   y (angstrom)   z (angstrom)
      1      C     1.12333179    -1.14572724     0.54130558
      2      C     2.05254497    -0.08678906     0.64446034
      3      C     1.82731986     0.96958574     1.55958772
      4      C     2.74933505     2.01027974     1.65316545
      5      C     3.89197150     2.02317277     0.84254695
      6      C     4.11502863     0.98216527    -0.06779885
      7      C     3.21114448    -0.07420079    -0.17144074
      8      N     0.36260821    -2.02933861     0.45652292
      9      N    -0.45813169    -2.98372075     0.18297934
     10      C    -1.40004841    -3.25174585     1.09002891
     11      N    -2.27599331    -3.57794348     1.79820309
     12      H     0.93512245     0.96337087     2.18033948
     13      H     2.57295159     2.81770389     2.36084113
     14      H     4.60508587     2.84132102     0.92047897
     15      H     4.99974947     0.99147951    -0.70120339
     16      H     3.38436955    -0.88379304    -0.87522692

Total System Charge              0.00000

 *** GO1_GOStep10 ***

 Energy gradients wrt nuclear displacements
 ==========================================

     Atom      Cartesian (a.u./angstrom)
                 X         Y         Z
 ----------------------------------------
     1 C    -0.002863  0.000539  0.001032
     2 C    -0.004604 -0.001604  0.000664
     3 C     0.000454 -0.000587 -0.000032
     4 C    -0.000491  0.000180 -0.000502
     5 C    -0.000263 -0.000750 -0.000263
     6 C     0.000254  0.000707  0.000632
     7 C     0.000785 -0.001449 -0.000466
     8 N     0.012199 -0.000027 -0.001735
     9 N    -0.010569  0.000346  0.006035
    10 C     0.004621  0.000899 -0.005305
    11 N     0.000299  0.000184 -0.000143
    12 H    -0.000254  0.000430  0.000017
    13 H    -0.000126  0.000208  0.000337
    14 H     0.000314  0.000498  0.000280
    15 H     0.000098  0.000143 -0.000332
    16 H     0.000144  0.000284 -0.000218
 ----------------------------------------
 Rebuilding optimization coordinates
Challenging geometry: added dihedral     3    2    8   10
Challenging geometry: could not add a dihedral for atom   11

 dE(predicted):    -0.12648E-03, dE(actual):    -0.13949E-03, Trust radius:    1.000000, all in a.u.
 
----------------------------------------------------------------------
Geometry Convergence after Step  10       (Hartree/Angstrom,Angstrom)
----------------------------------------------------------------------
current energy                               -3.92198571 Hartree
energy change                      -0.00013949     0.00016000    T
constrained gradient max            0.01217617     0.00010000    F
constrained gradient rms            0.00285423     0.00006667    F
gradient max                        0.01217649
gradient rms                        0.00285423
cart. step max                      0.06766941     0.01000000    F
cart. step rms                      0.01964895     0.00666667    F
 

--------
Geometry
--------
Formula: C8H5N3
Atoms
  Index Symbol   x (angstrom)   y (angstrom)   z (angstrom)
      1      C     1.08880119    -1.11210175     0.54966693
      2      C     2.03453866    -0.06376910     0.64562263
      3      C     1.82497582     0.99819410     1.55842752
      4      C     2.76370105     2.02370974     1.65243323
      5      C     3.90647933     2.01774004     0.84219721
      6      C     4.11384451     0.97122877    -0.06592116
      7      C     3.19316714    -0.06949764    -0.16921008
      8      N     0.34627017    -2.01559827     0.47340989
      9      N    -0.44494920    -2.98688489     0.17848100
     10      C    -1.39054457    -3.29104643     1.07811808
     11      N    -2.26294328    -3.64561289     1.77614879
     12      H     0.93353259     1.00397450     2.17988359
     13      H     2.59960960     2.83485364     2.35816868
     14      H     4.63231281     2.82397531     0.91905708
     15      H     5.00105391     0.96329586    -0.69520963
     16      H     3.35654027    -0.88664098    -0.86648375

Total System Charge              0.00000

 *** GO1_GOStep11 ***

 Energy gradients wrt nuclear displacements
 ==========================================

     Atom      Cartesian (a.u./angstrom)
                 X         Y         Z
 ----------------------------------------
     1 C     0.000611  0.006075  0.002272
     2 C    -0.001236 -0.000859 -0.001779
     3 C     0.000129  0.000202  0.000191
     4 C    -0.000113  0.000001  0.000071
     5 C    -0.000108  0.000023 -0.000014
     6 C    -0.000065 -0.000462  0.000062
     7 C     0.001059  0.001038 -0.000158
     8 N     0.002314 -0.009082 -0.000245
     9 N    -0.002170  0.003276 -0.000431
    10 C    -0.001037 -0.000900  0.000017
    11 N     0.000871  0.000585 -0.000396
    12 H    -0.000023  0.000059 -0.000090
    13 H    -0.000058 -0.000081 -0.000086
    14 H    -0.000141  0.000006  0.000136
    15 H    -0.000118  0.000055  0.000156
    16 H     0.000086  0.000064  0.000294
 ----------------------------------------

 dE(predicted):    -0.10447E-03, dE(actual):    -0.31543E-04, Trust radius:    1.000000, all in a.u.
 
----------------------------------------------------------------------
Geometry Convergence after Step  11       (Hartree/Angstrom,Angstrom)
----------------------------------------------------------------------
current energy                               -3.92201725 Hartree
energy change                      -0.00003154     0.00016000    T
constrained gradient max            0.00906122     0.00010000    F
constrained gradient rms            0.00180991     0.00006667    F
gradient max                        0.00906129
gradient rms                        0.00180991
cart. step max                      0.05715145     0.01000000    F
cart. step rms                      0.01566419     0.00666667    F
 

--------
Geometry
--------
Formula: C8H5N3
Atoms
  Index Symbol   x (angstrom)   y (angstrom)   z (angstrom)
      1      C     1.10973999    -1.13292311     0.55381888
      2      C     2.04617728    -0.07641840     0.65097776
      3      C     1.83008559     0.98271138     1.56538099
      4      C     2.75892986     2.01767899     1.65465283
      5      C     3.89714494     2.02385653     0.83789078
      6      C     4.10946976     0.98024877    -0.07244006
      7      C     3.19967923    -0.07078277    -0.17020390
      8      N     0.36454656    -2.03085266     0.47763385
      9      N    -0.42290249    -3.00960354     0.19790404
     10      C    -1.40057911    -3.27118535     1.07703102
     11      N    -2.30129021    -3.58846144     1.75756062
     12      H     0.94241749     0.97848944     2.19231282
     13      H     2.59013094     2.82702929     2.36146088
     14      H     4.61482406     2.83781769     0.91020599
     15      H     4.99264166     0.98210631    -0.70757705
     16      H     3.36537447    -0.88389113    -0.87181944

Total System Charge              0.00000

 *** GO1_GOStep12 ***

 Energy gradients wrt nuclear displacements
 ==========================================

     Atom      Cartesian (a.u./angstrom)
                 X         Y         Z
 ----------------------------------------
     1 C    -0.004798 -0.001083  0.000753
     2 C    -0.000780 -0.000429 -0.000799
     3 C    -0.000029  0.000462 -0.000152
     4 C    -0.000065 -0.000040  0.000141
     5 C     0.000057 -0.000002  0.000177
     6 C    -0.000490 -0.000025 -0.000154
     7 C     0.000617 -0.000032  0.000368
     8 N     0.008710 -0.001603 -0.000572
     9 N    -0.002015  0.003668 -0.000276
    10 C    -0.000133 -0.001664  0.000212
    11 N    -0.000782  0.000614  0.000203
    12 H    -0.000044 -0.000018 -0.000007
    13 H    -0.000110  0.000009 -0.000062
    14 H    -0.000086  0.000062  0.000085
    15 H    -0.000032  0.000016  0.000096
    16 H    -0.000021  0.000064 -0.000014
 ----------------------------------------

 dE(predicted):    -0.35883E-04, dE(actual):    -0.49619E-04, Trust radius:    1.000000, all in a.u.
 
----------------------------------------------------------------------
Geometry Convergence after Step  12       (Hartree/Angstrom,Angstrom)
----------------------------------------------------------------------
current energy                               -3.92206687 Hartree
energy change                      -0.00004962     0.00016000    T
constrained gradient max            0.00867637     0.00010000    F
constrained gradient rms            0.00162964     0.00006667    F
gradient max                        0.00867747
gradient rms                        0.00162964
cart. step max                      0.02023605     0.01000000    F
cart. step rms                      0.00638569     0.00666667    T
 

--------
Geometry
--------
Formula: C8H5N3
Atoms
  Index Symbol   x (angstrom)   y (angstrom)   z (angstrom)
      1      C     1.10843702    -1.13169348     0.55852884
      2      C     2.04482386    -0.07433572     0.65460706
      3      C     1.83195001     0.98418287     1.57016082
      4      C     2.76073446     2.01966217     1.65492876
      5      C     3.89697372     2.02462004     0.83530286
      6      C     4.10688492     0.97981847    -0.07423751
      7      C     3.19481347    -0.06953812    -0.17075041
      8      N     0.36810693    -2.03381946     0.48560566
      9      N    -0.40266645    -3.02663256     0.20977515
     10      C    -1.40205343    -3.27239847     1.06914406
     11      N    -2.31420193    -3.57885279     1.73880695
     12      H     0.94642075     0.97975696     2.20012914
     13      H     2.59471487     2.82906961     2.36238095
     14      H     4.61550889     2.83800030     0.90512752
     15      H     4.98841093     0.98082699    -0.71174067
     16      H     3.35753198    -0.88284683    -0.87297918

Total System Charge              0.00000

 *** GO1_GOStep13 ***

 Energy gradients wrt nuclear displacements
 ==========================================

     Atom      Cartesian (a.u./angstrom)
                 X         Y         Z
 ----------------------------------------
     1 C    -0.005030 -0.001740  0.000330
     2 C     0.000268  0.000319 -0.000734
     3 C     0.000022  0.000244  0.000096
     4 C    -0.000204  0.000086 -0.000134
     5 C     0.000006  0.000157  0.000107
     6 C    -0.000208 -0.000189  0.000220
     7 C    -0.000238 -0.000088  0.000342
     8 N     0.007535 -0.001491 -0.000017
     9 N    -0.000737  0.003611 -0.000581
    10 C    -0.001233 -0.001713  0.000494
    11 N     0.000104  0.000904 -0.000162
    12 H    -0.000121 -0.000060 -0.000036
    13 H    -0.000076 -0.000019  0.000043
    14 H    -0.000067  0.000003  0.000046
    15 H    -0.000009  0.000050  0.000037
    16 H    -0.000011 -0.000073 -0.000051
 ----------------------------------------

 dE(predicted):    -0.29987E-04, dE(actual):    -0.49354E-04, Trust radius:    1.000000, all in a.u.
 
----------------------------------------------------------------------
Geometry Convergence after Step  13       (Hartree/Angstrom,Angstrom)
----------------------------------------------------------------------
current energy                               -3.92211623 Hartree
energy change                      -0.00004935     0.00016000    T
constrained gradient max            0.00749700     0.00010000    F
constrained gradient rms            0.00150037     0.00006667    F
gradient max                        0.00749762
gradient rms                        0.00150037
cart. step max                      0.03731875     0.01000000    F
cart. step rms                      0.01232482     0.00666667    F
 

--------
Geometry
--------
Formula: C8H5N3
Atoms
  Index Symbol   x (angstrom)   y (angstrom)   z (angstrom)
      1      C     1.09445605    -1.11773119     0.56246310
      2      C     2.03468734    -0.06208031     0.65553556
      3      C     1.83082378     0.99667410     1.57204100
      4      C     2.76875801     2.02399426     1.65704848
      5      C     3.90319441     2.02153238     0.83487862
      6      C     4.10232222     0.97739265    -0.07773828
      7      C     3.18193267    -0.06527991    -0.17308745
      8      N     0.36423183    -2.02982030     0.49918936
      9      N    -0.36534769    -3.05663249     0.23548465
     10      C    -1.39915446    -3.28536358     1.05789046
     11      N    -2.32758109    -3.58775447     1.70667657
     12      H     0.94777273     0.99657630     2.20545021
     13      H     2.60969777     2.83458021     2.36484525
     14      H     4.62844610     2.82893940     0.90424803
     15      H     4.98411701     0.97093401    -0.71498331
     16      H     3.33803332    -0.88014105    -0.87515224

Total System Charge              0.00000

 *** GO1_GOStep14 ***

 Energy gradients wrt nuclear displacements
 ==========================================

     Atom      Cartesian (a.u./angstrom)
                 X         Y         Z
 ----------------------------------------
     1 C    -0.003335 -0.000515  0.000298
     2 C     0.001773  0.001590 -0.000680
     3 C    -0.000450  0.000181 -0.000351
     4 C     0.000313 -0.000506  0.000266
     5 C     0.000131  0.000035  0.000336
     6 C    -0.000346  0.000585 -0.000357
     7 C    -0.001024 -0.000518  0.000679
     8 N     0.002516 -0.002894  0.000869
     9 N     0.001325  0.002318 -0.000851
    10 C    -0.001289 -0.000389 -0.000653
    11 N     0.000403  0.000582  0.000264
    12 H    -0.000079 -0.000236  0.000059
    13 H    -0.000221  0.000140 -0.000060
    14 H    -0.000062 -0.000053 -0.000046
    15 H     0.000238 -0.000066  0.000221
    16 H     0.000108 -0.000257  0.000007
 ----------------------------------------

 dE(predicted):    -0.63985E-04, dE(actual):    -0.73679E-04, Trust radius:    1.000000, all in a.u.
 
----------------------------------------------------------------------
Geometry Convergence after Step  14       (Hartree/Angstrom,Angstrom)
----------------------------------------------------------------------
current energy                               -3.92218991 Hartree
energy change                      -0.00007368     0.00016000    T
constrained gradient max            0.00335687     0.00010000    F
constrained gradient rms            0.00099150     0.00006667    F
gradient max                        0.00335724
gradient rms                        0.00099150
cart. step max                      0.01256353     0.01000000    F
cart. step rms                      0.00422897     0.00666667    T
 

--------
Geometry
--------
Formula: C8H5N3
Atoms
  Index Symbol   x (angstrom)   y (angstrom)   z (angstrom)
      1      C     1.08951331    -1.11230672     0.56065989
      2      C     2.03102569    -0.05766044     0.65263196
      3      C     1.83075889     0.99996087     1.57115679
      4      C     2.76937022     2.02681806     1.65482949
      5      C     3.90601415     2.02033700     0.83584039
      6      C     4.10519968     0.97417066    -0.07435191
      7      C     3.17826481    -0.06213220    -0.17651594
      8      N     0.35781164    -2.02373945     0.49932358
      9      N    -0.36027727    -3.06111678     0.24312008
     10      C    -1.39688747    -3.29158564     1.06115144
     11      N    -2.32851145    -3.60031800     1.70198551
     12      H     0.94721199     1.00230450     2.20381241
     13      H     2.61294122     2.83623174     2.36455658
     14      H     4.63434496     2.82477139     0.90794974
     15      H     4.98731803     0.96595357    -0.71112429
     16      H     3.33229159    -0.87586855    -0.88023572

Total System Charge              0.00000

 *** GO1_GOStep15 ***

 Energy gradients wrt nuclear displacements
 ==========================================

     Atom      Cartesian (a.u./angstrom)
                 X         Y         Z
 ----------------------------------------
     1 C    -0.002165  0.000128  0.000679
     2 C     0.001518  0.001392 -0.000560
     3 C     0.000092 -0.000447  0.000293
     4 C    -0.000217  0.000130 -0.000553
     5 C    -0.000223  0.000246 -0.000131
     6 C     0.000727 -0.000265  0.000992
     7 C    -0.001407  0.000086 -0.000299
     8 N     0.001047 -0.002403  0.000491
     9 N     0.000909  0.001146 -0.000882
    10 C    -0.001208 -0.000395  0.000320
    11 N     0.000840  0.000656 -0.000578
    12 H    -0.000134 -0.000089 -0.000096
    13 H    -0.000016 -0.000047  0.000210
    14 H    -0.000008 -0.000066  0.000044
    15 H     0.000089  0.000104  0.000018
    16 H     0.000154 -0.000176  0.000053
 ----------------------------------------

 dE(predicted):    -0.23213E-04, dE(actual):    -0.27473E-04, Trust radius:    1.000000, all in a.u.
 
----------------------------------------------------------------------
Geometry Convergence after Step  15       (Hartree/Angstrom,Angstrom)
----------------------------------------------------------------------
current energy                               -3.92221738 Hartree
energy change                      -0.00002747     0.00016000    T
constrained gradient max            0.00238373     0.00010000    F
constrained gradient rms            0.00075524     0.00006667    F
gradient max                        0.00238380
gradient rms                        0.00075524
cart. step max                      0.00735153     0.01000000    T
cart. step rms                      0.00323285     0.00666667    T
 

--------
Geometry
--------
Formula: C8H5N3
Atoms
  Index Symbol   x (angstrom)   y (angstrom)   z (angstrom)
      1      C     1.09589984    -1.11719114     0.56081022
      2      C     2.03459405    -0.06072344     0.65099021
      3      C     1.83168371     0.99714981     1.56898253
      4      C     2.76913963     2.02483095     1.65521621
      5      C     3.90589152     2.02148809     0.83643855
      6      C     4.10632696     0.97752156    -0.07596144
      7      C     3.18325367    -0.06213375    -0.17710269
      8      N     0.35173842    -2.01874326     0.49769088
      9      N    -0.36452051    -3.05992719     0.24852599
     10      C    -1.40220897    -3.28876261     1.06518683
     11      N    -2.33380939    -3.60439854     1.70277232
     12      H     0.94760886     0.99849743     2.20084973
     13      H     2.61014691     2.83395751     2.36464362
     14      H     4.63244671     2.82746748     0.90971421
     15      H     4.98855545     0.97149622    -0.71252291
     16      H     3.33964312    -0.87470912    -0.88144426

Total System Charge              0.00000

 *** GO1_GOStep16 ***

 Energy gradients wrt nuclear displacements
 ==========================================

     Atom      Cartesian (a.u./angstrom)
                 X         Y         Z
 ----------------------------------------
     1 C    -0.000216  0.001069  0.000953
     2 C     0.000522  0.000529 -0.000330
     3 C    -0.000019 -0.000215 -0.000078
     4 C    -0.000003  0.000013 -0.000071
     5 C    -0.000111 -0.000008  0.000005
     6 C     0.000298  0.000097  0.000351
     7 C    -0.000438  0.000016 -0.000179
     8 N    -0.000157 -0.001485 -0.000225
     9 N     0.000285 -0.000352 -0.000479
    10 C    -0.001191  0.000010  0.000536
    11 N     0.000936  0.000246 -0.000790
    12 H    -0.000056  0.000004 -0.000088
    13 H    -0.000073  0.000009  0.000081
    14 H    -0.000021  0.000004  0.000102
    15 H     0.000090  0.000041  0.000127
    16 H     0.000153  0.000023  0.000085
 ----------------------------------------

 dE(predicted):    -0.22798E-04, dE(actual):    -0.33957E-04, Trust radius:    1.000000, all in a.u.
 
----------------------------------------------------------------------
Geometry Convergence after Step  16       (Hartree/Angstrom,Angstrom)
----------------------------------------------------------------------
current energy                               -3.92225134 Hartree
energy change                      -0.00003396     0.00016000    T
constrained gradient max            0.00146593     0.00010000    F
constrained gradient rms            0.00043697     0.00006667    F
gradient max                        0.00146586
gradient rms                        0.00043697
cart. step max                      0.01396746     0.01000000    F
cart. step rms                      0.00458336     0.00666667    T
 

--------
Geometry
--------
Formula: C8H5N3
Atoms
  Index Symbol   x (angstrom)   y (angstrom)   z (angstrom)
      1      C     1.10055944    -1.12067956     0.56022123
      2      C     2.03859288    -0.06462083     0.65148589
      3      C     1.83302438     0.99362640     1.56885163
      4      C     2.76778112     2.02374107     1.65461411
      5      C     3.90454081     2.02289921     0.83578558
      6      C     4.10817639     0.97837384    -0.07536440
      7      C     3.18872001    -0.06436236    -0.17493926
      8      N     0.34600714    -2.01282099     0.49297496
      9      N    -0.37848796    -3.04747134     0.24017936
     10      C    -1.40466911    -3.28593023     1.06805943
     11      N    -2.32894159    -3.61223011     1.71192080
     12      H     0.94859193     0.99366101     2.20025606
     13      H     2.60597335     2.83349093     2.36263326
     14      H     4.62837909     2.83142915     0.90803571
     15      H     4.99044681     0.97412166    -0.71181854
     16      H     3.34769531    -0.87740785    -0.87810581

Total System Charge              0.00000

 *** GO1_GOStep17 ***

 Energy gradients wrt nuclear displacements
 ==========================================

     Atom      Cartesian (a.u./angstrom)
                 X         Y         Z
 ----------------------------------------
     1 C    -0.000264  0.000346  0.000806
     2 C    -0.000170 -0.000272 -0.000349
     3 C     0.000011 -0.000099 -0.000010
     4 C    -0.000059  0.000062  0.000079
     5 C    -0.000057 -0.000022  0.000013
     6 C     0.000076 -0.000026  0.000157
     7 C     0.000158  0.000134 -0.000144
     8 N     0.000445  0.000153 -0.000505
     9 N    -0.000114 -0.000639 -0.000179
    10 C     0.000521  0.000690 -0.000329
    11 N    -0.000544 -0.000513  0.000125
    12 H    -0.000028  0.000030 -0.000029
    13 H    -0.000113  0.000019 -0.000007
    14 H    -0.000038  0.000051  0.000128
    15 H     0.000035  0.000026  0.000121
    16 H     0.000139  0.000060  0.000120
 ----------------------------------------

 dE(predicted):    -0.78071E-05, dE(actual):    -0.77719E-05, Trust radius:    1.000000, all in a.u.
 
----------------------------------------------------------------------
Geometry Convergence after Step  17       (Hartree/Angstrom,Angstrom)
----------------------------------------------------------------------
current energy                               -3.92225911 Hartree
energy change                      -0.00000777     0.00016000    T
constrained gradient max            0.00083935     0.00010000    F
constrained gradient rms            0.00026925     0.00006667    F
gradient max                        0.00083902
gradient rms                        0.00026925
cart. step max                      0.00539737     0.01000000    T
cart. step rms                      0.00252089     0.00666667    T
 

--------
Geometry
--------
Formula: C8H5N3
Atoms
  Index Symbol   x (angstrom)   y (angstrom)   z (angstrom)
      1      C     1.10595681    -1.12538000     0.56268307
      2      C     2.04214561    -0.06792388     0.65351235
      3      C     1.83435935     0.99086620     1.56992158
      4      C     2.76686533     2.02308590     1.65433378
      5      C     3.90283777     2.02452587     0.83436734
      6      C     4.10820108     0.97982862    -0.07624028
      7      C     3.19170088    -0.06563822    -0.17359105
      8      N     0.34627587    -2.01309952     0.49413065
      9      N    -0.38380002    -3.04273496     0.23728090
     10      C    -1.40760030    -3.28317763     1.06746246
     11      N    -2.33069381    -3.61028828     1.71205825
     12      H     0.95015275     0.98934169     2.20166820
     13      H     2.60384274     2.83283350     2.36206213
     14      H     4.62451158     2.83510446     0.90502964
     15      H     4.98985203     0.97733959    -0.71354772
     16      H     3.35178232    -0.87886334    -0.87634130

Total System Charge              0.00000

 *** GO1_GOStep18 ***

 Energy gradients wrt nuclear displacements
 ==========================================

     Atom      Cartesian (a.u./angstrom)
                 X         Y         Z
 ----------------------------------------
     1 C     0.000096  0.000404  0.000585
     2 C    -0.000204 -0.000468 -0.000249
     3 C    -0.000068  0.000085 -0.000053
     4 C    -0.000080  0.000031  0.000093
     5 C     0.000001  0.000015  0.000064
     6 C    -0.000052 -0.000037  0.000068
     7 C     0.000211  0.000136 -0.000053
     8 N     0.000413  0.000099 -0.000352
     9 N    -0.000220 -0.000482 -0.000158
    10 C    -0.000346  0.000293  0.000269
    11 N     0.000342 -0.000191 -0.000515
    12 H    -0.000057  0.000018 -0.000032
    13 H    -0.000094 -0.000014  0.000010
    14 H    -0.000062  0.000056  0.000104
    15 H     0.000037  0.000012  0.000141
    16 H     0.000084  0.000043  0.000079
 ----------------------------------------

 dE(predicted):    -0.12745E-05, dE(actual):    -0.39276E-05, Trust radius:    1.000000, all in a.u.
 
----------------------------------------------------------------------
Geometry Convergence after Step  18       (Hartree/Angstrom,Angstrom)
----------------------------------------------------------------------
current energy                               -3.92226304 Hartree
energy change                      -0.00000393     0.00016000    T
constrained gradient max            0.00061807     0.00010000    F
constrained gradient rms            0.00021240     0.00006667    F
gradient max                        0.00061777
gradient rms                        0.00021240
cart. step max                      0.00323556     0.01000000    T
cart. step rms                      0.00112686     0.00666667    T
 

--------
Geometry
--------
Formula: C8H5N3
Atoms
  Index Symbol   x (angstrom)   y (angstrom)   z (angstrom)
      1      C     1.10436853    -1.12393539     0.56203968
      2      C     2.04123726    -0.06689582     0.65341112
      3      C     1.83396534     0.99194943     1.56979907
      4      C     2.76720035     2.02351675     1.65429754
      5      C     3.90342661     2.02400222     0.83467082
      6      C     4.10831903     0.97906453    -0.07576973
      7      C     3.19115479    -0.06588845    -0.17303401
      8      N     0.34521103    -2.01204465     0.49328352
      9      N    -0.38495729    -3.04104404     0.23516244
     10      C    -1.40640089    -3.28461363     1.06732329
     11      N    -2.32764945    -3.61352384     1.71381207
     12      H     0.94943193     0.99109918     2.20110110
     13      H     2.60449918     2.83358766     2.36175283
     14      H     4.62573730     2.83400140     0.90544477
     15      H     4.99009583     0.97596658    -0.71292266
     16      H     3.35075046    -0.87942195    -0.87558185

Total System Charge              0.00000

 *** GO1_GOStep19 ***

 Energy gradients wrt nuclear displacements
 ==========================================

     Atom      Cartesian (a.u./angstrom)
                 X         Y         Z
 ----------------------------------------
     1 C    -0.000098  0.000139  0.000512
     2 C    -0.000070 -0.000173 -0.000331
     3 C    -0.000029  0.000033  0.000025
     4 C    -0.000073  0.000016  0.000039
     5 C     0.000001  0.000025  0.000086
     6 C    -0.000043  0.000012  0.000049
     7 C     0.000136  0.000026  0.000088
     8 N     0.000296 -0.000059 -0.000335
     9 N    -0.000029 -0.000195 -0.000132
    10 C    -0.000038  0.000363  0.000019
    11 N     0.000058 -0.000269 -0.000267
    12 H    -0.000074 -0.000003 -0.000036
    13 H    -0.000107  0.000009  0.000005
    14 H    -0.000044  0.000035  0.000103
    15 H     0.000042  0.000028  0.000117
    16 H     0.000071  0.000010  0.000058
 ----------------------------------------

 dE(predicted):    -0.32627E-06, dE(actual):     0.17166E-05, Trust radius:    0.020000, all in a.u.
 
----------------------------------------------------------------------
Geometry Convergence after Step  19       (Hartree/Angstrom,Angstrom)
----------------------------------------------------------------------
current energy                               -3.92226132 Hartree
energy change                       0.00000172     0.00016000    T
constrained gradient max            0.00054460     0.00010000    F
constrained gradient rms            0.00013934     0.00006667    F
gradient max                        0.00054429
gradient rms                        0.00013934
cart. step max                      0.00106541     0.01000000    T
cart. step rms                      0.00043605     0.00666667    T
 

--------
Geometry
--------
Formula: C8H5N3
Atoms
  Index Symbol   x (angstrom)   y (angstrom)   z (angstrom)
      1      C     1.10379526    -1.12347091     0.56227863
      2      C     2.04087636    -0.06638827     0.65378177
      3      C     1.83386982     0.99257638     1.56999034
      4      C     2.76748133     2.02383324     1.65429947
      5      C     3.90365057     2.02385755     0.83459160
      6      C     4.10820913     0.97875621    -0.07572219
      7      C     3.19052915    -0.06581680    -0.17291909
      8      N     0.34512289    -2.01199910     0.49367260
      9      N    -0.38413656    -3.04140637     0.23515308
     10      C    -1.40595347    -3.28556945     1.06668076
     11      N    -2.32749080    -3.61400697     1.71310918
     12      H     0.94934543     0.99197438     2.20130209
     13      H     2.60515143     2.83403101     2.36171756
     14      H     4.62630204     2.83356142     0.90525782
     15      H     4.98995237     0.97534599    -0.71293696
     16      H     3.34968505    -0.87945830    -0.87546667

Total System Charge              0.00000

 *** GO1_GOStep20 ***

 Energy gradients wrt nuclear displacements
 ==========================================

     Atom      Cartesian (a.u./angstrom)
                 X         Y         Z
 ----------------------------------------
     1 C    -0.000215 -0.000061  0.000431
     2 C     0.000139  0.000051 -0.000233
     3 C    -0.000051  0.000026 -0.000004
     4 C    -0.000052 -0.000015  0.000013
     5 C    -0.000030  0.000041  0.000067
     6 C     0.000026  0.000034  0.000092
     7 C    -0.000017 -0.000009  0.000092
     8 N     0.000150 -0.000174 -0.000296
     9 N     0.000139  0.000008 -0.000128
    10 C     0.000162  0.000311 -0.000155
    11 N    -0.000148 -0.000267 -0.000100
    12 H    -0.000084 -0.000019 -0.000047
    13 H    -0.000103  0.000019  0.000021
    14 H    -0.000036  0.000025  0.000093
    15 H     0.000056  0.000036  0.000111
    16 H     0.000065 -0.000007  0.000042
 ----------------------------------------
 
----------------------------------------------------------------------
Geometry Convergence after Step  20       (Hartree/Angstrom,Angstrom)
----------------------------------------------------------------------
current energy                               -3.92226066 Hartree
energy change                       0.00000065     0.00016000    T
constrained gradient max            0.00046305     0.00010000    F
constrained gradient rms            0.00011874     0.00006667    F
gradient max                        0.00046284
gradient rms                        0.00011874
cart. step max                      0.00084252     0.01000000    T
cart. step rms                      0.00017439     0.00666667    T
 

--------
Geometry
--------
Formula: C8H5N3
Atoms
  Index Symbol   x (angstrom)   y (angstrom)   z (angstrom)
      1      C     1.10390335    -1.12365222     0.56225220
      2      C     2.04088769    -0.06636486     0.65379925
      3      C     1.83393817     0.99244176     1.57013935
      4      C     2.76742262     2.02383943     1.65427263
      5      C     3.90357371     2.02389240     0.83454871
      6      C     4.10818563     0.97880502    -0.07575944
      7      C     3.19053001    -0.06582769    -0.17289391
      8      N     0.34503848    -2.01203738     0.49370981
      9      N    -0.38379335    -3.04175509     0.23534328
     10      C    -1.40594426    -3.28577249     1.06646377
     11      N    -2.32771170    -3.61316444     1.71299075
     12      H     0.94948557     0.99171780     2.20154177
     13      H     2.60510567     2.83404197     2.36169711
     14      H     4.62618677     2.83363737     0.90516783
     15      H     4.98988816     0.97547752    -0.71303257
     16      H     3.34969348    -0.87945912    -0.87545053

Total System Charge              0.00000

 *** GO1_GOStep21 ***

 Energy gradients wrt nuclear displacements
 ==========================================

     Atom      Cartesian (a.u./angstrom)
                 X         Y         Z
 ----------------------------------------
     1 C    -0.000212 -0.000134  0.000392
     2 C     0.000176  0.000215 -0.000214
     3 C    -0.000029 -0.000025  0.000017
     4 C    -0.000063  0.000002 -0.000026
     5 C    -0.000036  0.000021  0.000082
     6 C     0.000053  0.000064  0.000089
     7 C    -0.000047 -0.000063  0.000117
     8 N     0.000044 -0.000201 -0.000297
     9 N     0.000165  0.000078 -0.000081
    10 C     0.000041  0.000125 -0.000109
    11 N    -0.000006 -0.000141 -0.000184
    12 H    -0.000079 -0.000026 -0.000051
    13 H    -0.000101  0.000026  0.000025
    14 H    -0.000030  0.000022  0.000093
    15 H     0.000055  0.000044  0.000106
    16 H     0.000069 -0.000006  0.000042
 ----------------------------------------

 dE(predicted):    -0.12912E-06, dE(actual):    -0.10032E-05, Trust radius:    0.020000, all in a.u.
 
----------------------------------------------------------------------
Geometry Convergence after Step  21       (Hartree/Angstrom,Angstrom)
----------------------------------------------------------------------
current energy                               -3.92226167 Hartree
energy change                      -0.00000100     0.00016000    T
constrained gradient max            0.00042376     0.00010000    F
constrained gradient rms            0.00010668     0.00006667    F
gradient max                        0.00042365
gradient rms                        0.00010668
cart. step max                      0.00171370     0.01000000    T
cart. step rms                      0.00048197     0.00666667    T
 

--------
Geometry
--------
Formula: C8H5N3
Atoms
  Index Symbol   x (angstrom)   y (angstrom)   z (angstrom)
      1      C     1.10449296    -1.12431436     0.56183383
      2      C     2.04121894    -0.06680291     0.65348367
      3      C     1.83381735     0.99189590     1.56981864
      4      C     2.76707503     2.02347812     1.65430488
      5      C     3.90329636     2.02396655     0.83469213
      6      C     4.10834188     0.97902781    -0.07569046
      7      C     3.19090212    -0.06575750    -0.17319451
      8      N     0.34484436    -2.01203633     0.49322422
      9      N    -0.38418466    -3.04174179     0.23521489
     10      C    -1.40600680    -3.28544751     1.06678216
     11      N    -2.32751051    -3.61145074     1.71436436
     12      H     0.94929836     0.99088948     2.20111606
     13      H     2.60451285     2.83348870     2.36188718
     14      H     4.62568245     2.83389750     0.90554168
     15      H     4.99019122     0.97595353    -0.71274968
     16      H     3.35041810    -0.87922646    -0.87583905

Total System Charge              0.00000

 *** GO1_GOStep22 ***

 Energy gradients wrt nuclear displacements
 ==========================================

     Atom      Cartesian (a.u./angstrom)
                 X         Y         Z
 ----------------------------------------
     1 C    -0.000144 -0.000142  0.000392
     2 C     0.000182  0.000197 -0.000118
     3 C    -0.000059 -0.000028 -0.000043
     4 C    -0.000047  0.000001  0.000004
     5 C    -0.000061  0.000028  0.000059
     6 C     0.000081  0.000048  0.000103
     7 C    -0.000054 -0.000039  0.000048
     8 N    -0.000029 -0.000137 -0.000317
     9 N     0.000127  0.000080 -0.000023
    10 C     0.000065 -0.000031 -0.000184
    11 N     0.000005 -0.000056 -0.000155
    12 H    -0.000071 -0.000018 -0.000056
    13 H    -0.000092  0.000019  0.000030
    14 H    -0.000035  0.000030  0.000092
    15 H     0.000055  0.000037  0.000120
    16 H     0.000077  0.000011  0.000048
 ----------------------------------------

 dE(predicted):    -0.14336E-06, dE(actual):    -0.14495E-05, Trust radius:    0.020000, all in a.u.
 
----------------------------------------------------------------------
Geometry Convergence after Step  22       (Hartree/Angstrom,Angstrom)
----------------------------------------------------------------------
current energy                               -3.92226312 Hartree
energy change                      -0.00000145     0.00016000    T
constrained gradient max            0.00042387     0.00010000    F
constrained gradient rms            0.00009562     0.00006667    F
gradient max                        0.00042386
gradient rms                        0.00009562
cart. step max                      0.00150138     0.01000000    T
cart. step rms                      0.00041451     0.00666667    T
 

--------
Geometry
--------
Formula: C8H5N3
Atoms
  Index Symbol   x (angstrom)   y (angstrom)   z (angstrom)
      1      C     1.10490932    -1.12473175     0.56141801
      2      C     2.04144011    -0.06717315     0.65307225
      3      C     1.83380003     0.99132848     1.56962898
      4      C     2.76677116     2.02314620     1.65434374
      5      C     3.90311443     2.02398025     0.83490374
      6      C     4.10841353     0.97926684    -0.07568851
      7      C     3.19129509    -0.06574182    -0.17341540
      8      N     0.34490715    -2.01216162     0.49283873
      9      N    -0.38443073    -3.04184258     0.23522749
     10      C    -1.40607638    -3.28496266     1.06722282
     11      N    -2.32756640    -3.60994936     1.71531421
     12      H     0.94923414     0.99008215     2.20086091
     13      H     2.60386542     2.83306586     2.36193602
     14      H     4.62527132     2.83409781     0.90593553
     15      H     4.99028837     0.97650527    -0.71270207
     16      H     3.35115344    -0.87908991    -0.87610647

Total System Charge              0.00000

 *** GO1_GOStep23 ***

 Energy gradients wrt nuclear displacements
 ==========================================

     Atom      Cartesian (a.u./angstrom)
                 X         Y         Z
 ----------------------------------------
     1 C    -0.000058 -0.000033  0.000430
     2 C     0.000074  0.000092 -0.000179
     3 C    -0.000042 -0.000043 -0.000017
     4 C    -0.000061  0.000027  0.000011
     5 C    -0.000033  0.000010  0.000089
     6 C     0.000041  0.000036  0.000076
     7 C     0.000022 -0.000017  0.000042
     8 N     0.000000 -0.000056 -0.000328
     9 N     0.000072  0.000011 -0.000045
    10 C     0.000046 -0.000117 -0.000155
    11 N     0.000015 -0.000010 -0.000166
    12 H    -0.000065 -0.000009 -0.000050
    13 H    -0.000099  0.000017  0.000013
    14 H    -0.000041  0.000035  0.000097
    15 H     0.000043  0.000037  0.000119
    16 H     0.000084  0.000018  0.000063
 ----------------------------------------

 dE(predicted):    -0.57004E-07, dE(actual):    -0.12068E-05, Trust radius:    0.020000, all in a.u.
 
----------------------------------------------------------------------
Geometry Convergence after Step  23       (Hartree/Angstrom,Angstrom)
----------------------------------------------------------------------
current energy                               -3.92226432 Hartree
energy change                      -0.00000121     0.00016000    T
constrained gradient max            0.00046180     0.00010000    F
constrained gradient rms            0.00008634     0.00006667    F
gradient max                        0.00046185
gradient rms                        0.00008634
cart. step max                      0.00086336     0.01000000    T
cart. step rms                      0.00024204     0.00666667    T
 

--------
Geometry
--------
Formula: C8H5N3
Atoms
  Index Symbol   x (angstrom)   y (angstrom)   z (angstrom)
      1      C     1.10493585    -1.12476660     0.56102526
      2      C     2.04144370    -0.06729065     0.65276731
      3      C     1.83364652     0.99118337     1.56936893
      4      C     2.76661647     2.02297009     1.65437737
      5      C     3.90302059     2.02396933     0.83501480
      6      C     4.10847611     0.97930977    -0.07560739
      7      C     3.19143982    -0.06572902    -0.17353820
      8      N     0.34491140    -2.01216459     0.49244598
      9      N    -0.38465586    -3.04178772     0.23505837
     10      C    -1.40597931    -3.28469629     1.06755417
     11      N    -2.32717194    -3.60944011     1.71617758
     12      H     0.94901692     0.98986277     2.20051882
     13      H     2.60362758     2.83275244     2.36210127
     14      H     4.62517506     2.83406724     0.90627122
     15      H     4.99046636     0.97658480    -0.71246091
     16      H     3.35142074    -0.87900482    -0.87628459

Total System Charge              0.00000

 *** GO1_GOStep24 ***

 Energy gradients wrt nuclear displacements
 ==========================================

     Atom      Cartesian (a.u./angstrom)
                 X         Y         Z
 ----------------------------------------
     1 C    -0.000035  0.000017  0.000457
     2 C     0.000027 -0.000018 -0.000207
     3 C    -0.000053 -0.000014 -0.000025
     4 C    -0.000055  0.000021  0.000037
     5 C    -0.000039  0.000033  0.000062
     6 C     0.000021  0.000016  0.000079
     7 C     0.000059  0.000008  0.000044
     8 N     0.000058  0.000007 -0.000337
     9 N     0.000052 -0.000034 -0.000064
    10 C     0.000013 -0.000123 -0.000138
    11 N     0.000031 -0.000004 -0.000166
    12 H    -0.000066 -0.000005 -0.000044
    13 H    -0.000098  0.000009  0.000015
    14 H    -0.000041  0.000034  0.000103
    15 H     0.000045  0.000031  0.000123
    16 H     0.000080  0.000021  0.000061
 ----------------------------------------
 
----------------------------------------------------------------------
Geometry Convergence after Step  24       (Hartree/Angstrom,Angstrom)
----------------------------------------------------------------------
current energy                               -3.92226473 Hartree
energy change                      -0.00000041     0.00016000    T
constrained gradient max            0.00048900     0.00010000    F
constrained gradient rms            0.00008874     0.00006667    F
gradient max                        0.00048905
gradient rms                        0.00008874
cart. step max                      0.00033777     0.01000000    T
cart. step rms                      0.00010344     0.00666667    T
 

--------
Geometry
--------
Formula: C8H5N3
Atoms
  Index Symbol   x (angstrom)   y (angstrom)   z (angstrom)
      1      C     1.10494961    -1.12476845     0.56085950
      2      C     2.04146173    -0.06736912     0.65266229
      3      C     1.83359769     0.99110597     1.56929121
      4      C     2.76655432     2.02288462     1.65440351
      5      C     3.90304358     2.02389860     0.83514874
      6      C     4.10850145     0.97932103    -0.07556633
      7      C     3.19147574    -0.06570348    -0.17361657
      8      N     0.34496486    -2.01219802     0.49231551
      9      N    -0.38471376    -3.04178871     0.23498620
     10      C    -1.40591890    -3.28455059     1.06770982
     11      N    -2.32703109    -3.60919619     1.71651535
     12      H     0.94889965     0.98978476     2.20035278
     13      H     2.60346620     2.83266600     2.36210413
     14      H     4.62514881     2.83403603     0.90642709
     15      H     4.99050652     0.97664471    -0.71240324
     16      H     3.35148358    -0.87894716    -0.87639999

Total System Charge              0.00000

 *** GO1_GOStep25 ***

 Energy gradients wrt nuclear displacements
 ==========================================

     Atom      Cartesian (a.u./angstrom)
                 X         Y         Z
 ----------------------------------------
     1 C    -0.000016  0.000060  0.000467
     2 C     0.000004 -0.000101 -0.000230
     3 C    -0.000050  0.000010 -0.000010
     4 C    -0.000063  0.000020  0.000036
     5 C    -0.000015  0.000023  0.000080
     6 C     0.000002  0.000010  0.000075
     7 C     0.000068  0.000038  0.000040
     8 N     0.000085  0.000032 -0.000329
     9 N     0.000051 -0.000061 -0.000095
    10 C     0.000033 -0.000101 -0.000140
    11 N    -0.000004 -0.000020 -0.000143
    12 H    -0.000071 -0.000003 -0.000042
    13 H    -0.000103  0.000009  0.000011
    14 H    -0.000046  0.000037  0.000097
    15 H     0.000046  0.000031  0.000121
    16 H     0.000078  0.000014  0.000062
 ----------------------------------------
 
----------------------------------------------------------------------
Geometry Convergence after Step  25       (Hartree/Angstrom,Angstrom)
----------------------------------------------------------------------
current energy                               -3.92226488 Hartree
energy change                      -0.00000014     0.00016000    T
constrained gradient max            0.00049908     0.00010000    F
constrained gradient rms            0.00009209     0.00006667    F
gradient max                        0.00049913
gradient rms                        0.00009209
cart. step max                      0.00028901     0.01000000    T
cart. step rms                      0.00010099     0.00666667    T
 

--------
Geometry
--------
Formula: C8H5N3
Atoms
  Index Symbol   x (angstrom)   y (angstrom)   z (angstrom)
      1      C     1.10490380    -1.12469920     0.56062301
      2      C     2.04141681    -0.06738303     0.65249819
      3      C     1.83352388     0.99107699     1.56919827
      4      C     2.76650192     2.02280553     1.65443414
      5      C     3.90302948     2.02386808     0.83521465
      6      C     4.10851481     0.97932983    -0.07553269
      7      C     3.19149256    -0.06568001    -0.17368082
      8      N     0.34504053    -2.01223724     0.49220985
      9      N    -0.38468124    -3.04185972     0.23497039
     10      C    -1.40582935    -3.28442184     1.06787999
     11      N    -2.32690578    -3.60896494     1.71680436
     12      H     0.94877336     0.98972998     2.20019694
     13      H     2.60337292     2.83254172     2.36217913
     14      H     4.62516936     2.83396145     0.90660561
     15      H     4.99055929     0.97666579    -0.71232336
     16      H     3.35150765    -0.87891340    -0.87648767

Total System Charge              0.00000

 *** GO1_GOStep26 ***

 Energy gradients wrt nuclear displacements
 ==========================================

     Atom      Cartesian (a.u./angstrom)
                 X         Y         Z
 ----------------------------------------
     1 C     0.000009  0.000107  0.000472
     2 C    -0.000029 -0.000186 -0.000275
     3 C    -0.000041  0.000052  0.000015
     4 C    -0.000068  0.000004  0.000042
     5 C    -0.000009  0.000034  0.000065
     6 C    -0.000014  0.000005  0.000082
     7 C     0.000081  0.000060  0.000057
     8 N     0.000116  0.000060 -0.000313
     9 N     0.000057 -0.000094 -0.000140
    10 C     0.000043 -0.000076 -0.000129
    11 N    -0.000036 -0.000037 -0.000123
    12 H    -0.000078 -0.000004 -0.000039
    13 H    -0.000108  0.000009  0.000012
    14 H    -0.000045  0.000033  0.000099
    15 H     0.000050  0.000030  0.000117
    16 H     0.000072  0.000003  0.000058
 ----------------------------------------
 
----------------------------------------------------------------------
Geometry Convergence after Step  26       (Hartree/Angstrom,Angstrom)
----------------------------------------------------------------------
current energy                               -3.92226502 Hartree
energy change                      -0.00000014     0.00016000    T
constrained gradient max            0.00050374     0.00010000    F
constrained gradient rms            0.00010004     0.00006667    F
gradient max                        0.00050378
gradient rms                        0.00010004
cart. step max                      0.00072970     0.01000000    T
cart. step rms                      0.00026197     0.00666667    T
 

--------
Geometry
--------
Formula: C8H5N3
Atoms
  Index Symbol   x (angstrom)   y (angstrom)   z (angstrom)
      1      C     1.10461601    -1.12438292     0.55998067
      2      C     2.04123765    -0.06729329     0.65213253
      3      C     1.83329552     0.99116641     1.56892583
      4      C     2.76641740     2.02269559     1.65447516
      5      C     3.90314402     2.02367439     0.83549416
      6      C     4.10859186     0.97926854    -0.07539339
      7      C     3.19142931    -0.06558905    -0.17384774
      8      N     0.34507071    -2.01221073     0.49194727
      9      N    -0.38461906    -3.04197482     0.23493673
     10      C    -1.40554644    -3.28433052     1.06827243
     11      N    -2.32640278    -3.60883298     1.71753406
     12      H     0.94839345     0.98982765     2.19973056
[...]
                                   -4.53%     2 P:y             4.589  0.00     2 C
                                    4.48%     1 P:z            -7.062  1.00    10 N
                                    4.42%     1 P:x            -7.062  1.00    10 N
                                    4.10%     1 P:x            -5.239  0.67     1 C
                                    4.07%     2 P:z             4.589  0.00     3 C
                                    3.94%     2 P:x             4.589  0.00     1 C
                                    3.47%     2 P:z             4.589  0.00     7 C
                                    3.25%     2 P:x             4.589  0.00     7 C
                                    3.16%     1 P:z            -5.239  0.67     2 C
                                    2.81%     1 P:y            -5.239  0.67     1 C
                                   -2.71%     2 P:z             7.649  0.00     9 N
                                    2.31%     1 P:z            -5.239  0.67     3 C
                                    2.22%     2 P:y             4.589  0.00     1 C
                                   -2.17%     2 P:y             4.589  0.00     4 C
                                    2.06%     2 P:y             4.589  0.00     7 C
                                    2.01%     2 P:x             4.589  0.00     3 C
                                   -2.01%     2 P:z             4.589  0.00     6 C
                                    1.98%     1 P:z            -5.239  0.67     7 C
                                    1.90%     1 P:x            -5.239  0.67     7 C
                                    1.82%     1 P:x            -7.062  1.00     9 N
                                    1.81%     1 P:z            -7.062  1.00     9 N
                                   -1.80%     2 P:x             4.589  0.00     8 C
                                    1.67%     1 P:y            -7.062  1.00     9 N
                                    1.67%     1 P:y            -5.239  0.67     2 C
                                    1.65%     1 P:x            -5.239  0.67     3 C
                                   -1.63%     2 P:x             7.649  0.00     9 N
                                   -1.60%     2 P:y             4.589  0.00     8 C
                                   -1.58%     2 P:x             4.589  0.00     2 C
                                    1.30%     1 P:y            -5.239  0.67     5 C
                                    1.28%     2 P:y             4.589  0.00     3 C
                                    1.26%     1 P:z            -5.239  0.67     5 C
                                   -1.24%     2 P:y             7.649  0.00     9 N
                                   -1.20%     2 P:z             4.589  0.00     8 C
                                   -1.14%     2 P:y             4.589  0.00     6 C
       2.354  0.00    51 A         13.94%     1 S              -6.532  1.00    15 H
                                   12.66%     1 S              -6.532  1.00    13 H
                                   10.42%     1 S              -6.532  1.00    14 H
                                   10.22%     2 S             -13.620  2.00     2 C
                                    9.37%     2 P:y             4.589  0.00     2 C
                                    8.80%     1 S              -6.532  1.00    16 H
                                    8.25%     2 S               2.394  0.00    14 H
                                   -8.00%     3 S              10.158  0.00     2 C
                                   -7.36%     2 P:x             4.589  0.00     6 C
                                    6.80%     1 S              -6.532  1.00    12 H
                                   -6.23%     2 S               2.394  0.00    15 H
                                   -5.83%     2 S               2.394  0.00    13 H
                                    5.77%     2 P:y             4.589  0.00     3 C
                                    5.32%     2 P:x             4.589  0.00     2 C
                                   -5.20%     3 S              14.073  0.00     9 N
                                   -4.99%     2 P:y             4.589  0.00     5 C
                                    4.12%     1 P:y            -5.239  0.67     3 C
                                    3.94%     2 P:x             4.589  0.00     7 C
                                   -3.71%     2 P:z             4.589  0.00     4 C
                                    3.35%     1 P:x            -5.239  0.67     7 C
                                    3.03%     2 P:y             4.589  0.00     1 C
                                   -2.93%     2 P:y             4.589  0.00     4 C
                                    2.85%     2 S             -13.620  2.00     7 C
                                    2.55%     2 P:x             7.649  0.00     9 N
                                    2.42%     2 S               2.394  0.00    16 H
                                    2.31%     1 P:z            -5.239  0.67     8 C
                                   -2.23%     2 P:x             4.589  0.00     5 C
                                    2.20%     2 S             -13.620  2.00     3 C
                                    2.04%     2 P:y             7.649  0.00     9 N
                                   -1.99%     3 S              10.158  0.00     7 C
                                    1.97%     2 S             -18.450  2.00     9 N
                                    1.96%     2 S               2.394  0.00    12 H
                                    1.93%     2 P:z             4.589  0.00     7 C
                                    1.63%     1 P:y            -5.239  0.67     7 C
                                    1.58%     1 P:x            -5.239  0.67     5 C
                                    1.52%     1 P:y            -5.239  0.67     1 C
                                    1.38%     2 P:x             4.589  0.00     8 C
                                   -1.36%     3 S              10.158  0.00     3 C
                                    1.30%     1 P:z            -7.062  1.00    10 N
                                    1.30%     1 D:xy           33.824  0.00     1 C
                                    1.14%     3 S              40.869  0.00    15 H
                                   -1.06%     2 P:x             4.589  0.00     3 C

 Energy gradients wrt nuclear displacements
 ==========================================

     Atom      Cartesian (a.u./angstrom)
                 X         Y         Z
 ----------------------------------------
     1 C     0.000025 -0.000012 -0.000052
     2 C     0.000021 -0.000011 -0.000016
     3 C    -0.000030  0.000062  0.000015
     4 C    -0.000078 -0.000031  0.000046
     5 C    -0.000015  0.000010  0.000041
     6 C     0.000041  0.000046  0.000112
     7 C     0.000009  0.000001  0.000058
     8 N     0.000036 -0.000015 -0.000044
     9 N     0.000061 -0.000046 -0.000100
    10 C     0.000001 -0.000045 -0.000096
    11 N     0.000032 -0.000046 -0.000176
    12 H    -0.000074 -0.000025 -0.000049
    13 H    -0.000098  0.000022  0.000014
    14 H    -0.000046  0.000040  0.000092
    15 H     0.000042  0.000038  0.000105
    16 H     0.000071  0.000011  0.000049
 ----------------------------------------



 =======================================================================
 Electrostatic potential at the Nuclei due to electrons and other nuclei
 =======================================================================
  
         Atom                  Potential
         ----                  ---------
     1)   C                  14.69268228
     2)   C                  14.70832587
     3)   C                  14.74325361
     4)   C                  14.75060029
     5)   C                  14.75139324
     6)   C                  14.75031854
     7)   C                  14.74266731
     8)   N                  18.27796509
     9)   N                  18.34865534
    10)   C                  14.74979828
    11)   N                  18.45897629
    12)   H                   1.06698301
    13)   H                   1.07387850
    14)   H                   1.07505860
    15)   H                   1.07352160
    16)   H                   1.06625240
 Mulliken charges used for AMS results%charges...


    =====================
     CALCULATION RESULTS
    =====================

Energy (hartree)            -3.92227126

Gradients (hartree/bohr)
  Index   Atom            d/dx            d/dy            d/dz
      1      C    0.0000134749   -0.0000064625   -0.0000273391
      2      C    0.0000111223   -0.0000056398   -0.0000082467
      3      C   -0.0000156655    0.0000330221    0.0000078110
      4      C   -0.0000413808   -0.0000163069    0.0000246031
      5      C   -0.0000080337    0.0000052472    0.0000218538
      6      C    0.0000218669    0.0000241222    0.0000592691
      7      C    0.0000049919    0.0000004618    0.0000307419
      8      N    0.0000188068   -0.0000079425   -0.0000234354
      9      N    0.0000322756   -0.0000241668   -0.0000531723
     10      C    0.0000007194   -0.0000237527   -0.0000509906
     11      N    0.0000170893   -0.0000244967   -0.0000929641
     12      H   -0.0000389381   -0.0000130397   -0.0000257381
     13      H   -0.0000519658    0.0000116680    0.0000072718
     14      H   -0.0000242325    0.0000211726    0.0000487460
     15      H    0.0000221912    0.0000201890    0.0000556448
     16      H    0.0000376781    0.0000059247    0.0000259446


--------------
Atomic charges
--------------
  Index   Atom    Charge
      1      C    0.1354
      2      C   -0.0063
      3      C    0.2164
      4      C    0.2320
      5      C    0.2251
      6      C    0.2321
      7      C    0.2141
      8      N    0.0278
      9      N   -0.2249
     10      C    0.2022
     11      N   -0.3107
     12      H   -0.1681
     13      H   -0.2039
     14      H   -0.1973
     15      H   -0.2043
     16      H   -0.1696


Dipole moment vector    (Debye):     6.36953166    5.59114949   -1.12703538
              magnitude (Debye):     8.54997631


-----------------------
Molecular orbitals info
-----------------------
n orbitals:              341
n spin:                    1

Note: only printing virtual orbitals with
      energy smaller than HOMO + 100. eV

HOMO (eV):              -5.7075
LUMO (eV):              -2.9590
HOMO-LUMO gap (eV):      2.7485

   Index   Energy (eV)    Occupation
     211       94.0530         0.000       
     210       93.2970         0.000       
     209       92.6185         0.000       
     208       92.4605         0.000       
     207       91.4744         0.000       
     206       90.4160         0.000       
     205       89.5807         0.000       
     204       88.1508         0.000       
     203       87.6908         0.000       
     202       87.4874         0.000       
     201       85.7199         0.000       
     200       85.1765         0.000       
     199       84.5111         0.000       
     198       84.4522         0.000       
     197       83.6202         0.000       
     196       82.3892         0.000       
     195       81.4571         0.000       
     194       80.7181         0.000       
     193       79.3257         0.000       
     192       79.2726         0.000       
     191       79.2417         0.000       
     190       78.7125         0.000       
     189       77.2524         0.000       
     188       76.4857         0.000       
     187       75.7201         0.000       
     186       74.7873         0.000       
     185       73.8894         0.000       
     184       73.3852         0.000       
     183       72.3843         0.000       
     182       72.2835         0.000       
     181       71.2528         0.000       
     180       70.6063         0.000       
     179       70.3400         0.000       
     178       69.4178         0.000       
     177       68.4680         0.000       
     176       68.3924         0.000       
     175       67.1395         0.000       
     174       65.1429         0.000       
     173       65.1326         0.000       
     172       64.8977         0.000       
     171       63.6953         0.000       
     170       62.8910         0.000       
     169       61.9037         0.000       
     168       61.1903         0.000       
     167       61.0982         0.000       
     166       60.5683         0.000       
     165       60.4103         0.000       
     164       59.9515         0.000       
     163       58.7844         0.000       
     162       57.1130         0.000       
     161       55.7104         0.000       
     160       55.1210         0.000       
     159       54.9343         0.000       
     158       53.9162         0.000       
     157       53.4749         0.000       
     156       52.4415         0.000       
     155       52.2337         0.000       
     154       51.0744         0.000       
     153       50.6286         0.000       
     152       50.0108         0.000       
     151       49.6979         0.000       
     150       49.2051         0.000       
     149       48.3397         0.000       
     148       48.2911         0.000       
     147       47.6410         0.000       
     146       46.9042         0.000       
     145       46.8030         0.000       
     144       45.8297         0.000       
     143       43.8759         0.000       
     142       43.7388         0.000       
     141       43.1201         0.000       
     140       42.0007         0.000       
     139       41.7342         0.000       
     138       40.6151         0.000       
     137       39.4888         0.000       
     136       39.3700         0.000       
     135       39.0562         0.000       
     134       38.5935         0.000       
     133       37.4739         0.000       
     132       37.1542         0.000       
     131       36.5677         0.000       
     130       35.7670         0.000       
     129       35.6149         0.000       
     128       35.4180         0.000       
     127       35.1518         0.000       
     126       34.3526         0.000       
     125       34.2839         0.000       
     124       33.8811         0.000       
     123       32.6758         0.000       
     122       31.6676         0.000       
     121       30.9455         0.000       
     120       30.6799         0.000       
     119       30.6576         0.000       
     118       29.9946         0.000       
     117       29.4326         0.000       
     116       28.9926         0.000       
     115       28.1806         0.000       
     114       27.8509         0.000       
     113       27.2604         0.000       
     112       26.8643         0.000       
     111       26.8095         0.000       
     110       26.4808         0.000       
     109       25.7802         0.000       
     108       25.4785         0.000       
     107       24.8941         0.000       
     106       24.6874         0.000       
     105       23.6110         0.000       
     104       23.2741         0.000       
     103       23.0439         0.000       
     102       22.8308         0.000       
     101       21.9498         0.000       
     100       20.9667         0.000       
      99       20.6427         0.000       
      98       20.1224         0.000       
      97       19.9012         0.000       
      96       19.2192         0.000       
      95       18.5878         0.000       
      94       17.8988         0.000       
      93       17.4481         0.000       
      92       17.2719         0.000       
      91       16.5897         0.000       
      90       16.3516         0.000       
      89       16.1828         0.000       
      88       15.4482         0.000       
      87       15.0164         0.000       
      86       14.3353         0.000       
      85       13.5047         0.000       
      84       12.8570         0.000       
      83       12.6803         0.000       
      82       11.9976         0.000       
      81       11.4013         0.000       
      80       10.9561         0.000       
      79       10.7404         0.000       
      78       10.4521         0.000       
      77        9.3198         0.000       
      76        9.2377         0.000       
      75        9.1631         0.000       
      74        8.4988         0.000       
      73        8.3258         0.000       
      72        8.1955         0.000       
      71        7.8959         0.000       
      70        7.7694         0.000       
      69        7.6115         0.000       
      68        7.3355         0.000       
      67        7.2001         0.000       
      66        6.9929         0.000       
      65        6.8464         0.000       
      64        5.9540         0.000       
      63        5.5833         0.000       
      62        5.3524         0.000       
      61        5.1212         0.000       
      60        4.7704         0.000       
      59        4.7320         0.000       
      58        4.5355         0.000       
      57        4.3644         0.000       
      56        3.9844         0.000       
      55        3.8990         0.000       
      54        3.4565         0.000       
      53        3.0210         0.000       
      52        2.8775         0.000       
      51        2.3542         0.000       
      50        2.0615         0.000       
      49        1.5393         0.000       
      48        1.3479         0.000       
      47        1.0759         0.000       
      46        0.7527         0.000       
      45        0.3212         0.000       
      44       -0.0543         0.000       
      43       -0.1804         0.000       
      42       -0.3005         0.000       
      41       -0.8535         0.000       
      40       -1.9484         0.000       
      39       -2.1574         0.000       
      38       -2.9590         0.000 < LUMO
      37       -5.7075         2.000 < HOMO
      36       -6.9815         2.000       
      35       -7.2803         2.000       
      34       -7.5729         2.000       
      33       -8.1029         2.000       
      32       -8.6864         2.000       
      31       -8.8260         2.000       
      30       -9.4210         2.000       
      29       -9.6486         2.000       
      28      -10.1685         2.000       
      27      -11.2658         2.000       
      26      -11.5719         2.000       
      25      -11.7832         2.000       
      24      -12.1701         2.000       
      23      -12.4701         2.000       
      22      -12.8330         2.000       
      21      -14.3752         2.000       
      20      -15.9290         2.000       
      19      -16.4798         2.000       
      18      -17.1555         2.000       
      17      -19.4316         2.000       
      16      -19.9430         2.000       
      15      -21.5933         2.000       
      14      -22.2651         2.000       
      13      -23.1336         2.000       
      12      -27.0455         2.000       
      11     -271.0531         2.000       
      10     -271.0800         2.000       
       9     -271.0871         2.000       
       8     -271.2757         2.000       
       7     -271.2896         2.000       
       6     -271.3177         2.000       
       5     -272.1417         2.000       
       4     -272.7312         2.000       
       3     -380.9426         2.000       
       2     -383.4854         2.000       
       1     -385.3501         2.000       

AMS application finished. Exiting.
NORMAL TERMINATION
     Total cpu time:    1514.84
  Total system time:      10.17
 Total elapsed time:    1533.03
NORMAL TERMINATION
