
 *******************************************************************************
 *                                                                             *
 *  --------------------------------                                           *
 *   Amsterdam Modeling Suite (AMS)              2026.103                      *
 *  --------------------------------                                           *
 *                                               r260501 2026-05-01 873454b5   *
 *                                                                             *
 *                                                                             *
 *                              =================                              *
 *                              |               |                              *
 *                              |     A M S     |                              *
 *                              |               |                              *
 *                              =================                              *
 *                                                                             *
 *                                                                             *
 *   Online information and documentation:  https://www.scm.com/support/       *
 *   E-mail:  support@scm.com   info@scm.com                                   *
 *                                                                             *
 *   Scientific publications using AMS results must be properly referenced     *
 *   See the User Manuals (or the web site) for recommended citations          *
 *   The terms and conditions of the End User License Agreement apply to       *
 *   the use of AMS, https://www.scm.com/license-terms/                        *
 *                                                                             *
 **********************  x86_64_linux_intel / intelmpi  ************************
 
 Licensed to: Jong-June Jeon / University of Seoul 2026-06-02 13:44:15
 SCM User ID: u30731
  
 AMS 2026.103  RunTime: Jun03-2026 16:45:31  ShM Nodes: 1  Procs: 1

 AMS jobname: c1_fragA_ts
 AMS jobid  : 226842039

 Start   directory: /gpfs/home1/yeseo1ee/projects/eda-asm-prediction/ADF_800/adf_outputs/batch_002/dipolar_002823/
 Results directory: /gpfs/home1/yeseo1ee/projects/eda-asm-prediction/ADF_800/adf_outputs/batch_002/dipolar_002823/c1_fragA_ts.results/
 Scratch directory: /tmp/amstmp_c1_fragA_ts_kid0.226842039/

 RNG seed: -1430560523 -766004223 -650784571 -1284677775 247379558 -1809702714 -53502935 222322095



                      ************************************************************************
                      *  ADF 2026.103  RunTime: Jun03-2026 16:45:32  ShM Nodes: 1  Procs: 1  *
                      ************************************************************************
  

       ****************************
       * SINGLE POINT CALCULATION *
       ****************************

--------
Geometry
--------
Formula: C18H18N2O2
Atoms
  Index Symbol   x (angstrom)   y (angstrom)   z (angstrom)
      1      C     0.29196000    -0.82905000    -0.38176000
      2      C     1.11721000    -0.56283000    -1.59522000
      3      O     0.85723000     0.35975000    -2.38858000
      4      N     2.19527000    -1.36403000    -1.80134000
      5      C     3.10690000    -1.13711000    -2.90262000
      6      C     0.70164000    -2.06018000     0.39315000
      7      O     1.80913000    -2.18914000     0.94182000
      8      N    -0.17263000    -3.08978000     0.36349000
      9      C     0.00004000    -4.25922000     1.19989000
     10      C    -1.08956000    -0.40015000    -0.35358000
     11      C    -1.88012000    -0.73450000     0.87608000
     12      C    -3.26528000    -1.00013000     0.82981000
     13      C    -3.99281000    -1.31788000     1.97882000
     14      C    -3.36321000    -1.39118000     3.22278000
     15      C    -1.98677000    -1.15431000     3.29354000
     16      C    -1.26539000    -0.83335000     2.14584000
     17      C    -1.87418000    -0.39828000    -1.63501000
     18      C    -2.97585000     0.44992000    -1.84885000
     19      C    -3.74162000     0.36713000    -3.01284000
     20      C    -3.43333000    -0.57745000    -3.99688000
     21      C    -2.35944000    -1.44822000    -3.79103000
     22      C    -1.59814000    -1.36304000    -2.62342000
     23      H     2.51702000    -1.92605000    -1.01905000
     24      H     3.73541000    -0.24272000    -2.75729000
     25      H     2.54763000    -1.01008000    -3.84040000
     26      H     3.76611000    -2.00956000    -3.00259000
     27      H    -1.08993000    -2.92512000    -0.03595000
     28      H     1.01802000    -4.65956000     1.09653000
     29      H    -0.71900000    -5.02948000     0.89382000
     30      H    -0.16879000    -4.01981000     2.26499000
     31      H    -3.79088000    -0.97798000    -0.12212000
     32      H    -5.06387000    -1.51716000     1.89308000
     33      H    -3.93199000    -1.63897000     4.12187000
     34      H    -1.46522000    -1.21553000     4.25148000
     35      H    -0.19592000    -0.67608000     2.25463000
     36      H    -3.23679000     1.17624000    -1.08136000
     37      H    -4.58640000     1.04684000    -3.15006000
     38      H    -4.03063000    -0.64114000    -4.90958000
     39      H    -2.11566000    -2.20698000    -4.53885000
     40      H    -0.78343000    -2.07185000    -2.46853000

Total System Charge              0.00000


----------------
ADF Engine Input
----------------
 
   Basis
     Type TZ2P
     Core None
   End
   XC
     GGA BLYP
     Dispersion GRIMME3 BJDAMP
   End
   Symmetry NOSYM
   NumericalQuality Normal
   Unrestricted No
   SCF
     Iterations 200
     Converge 1.0e-6
   End
   Save TAPE21
 

 Title: *** (NO TITLE) ***

 *** adf ***



 ===========================
 A T T A C H E D   F I L E S
 ===========================
  



 ===============================
 M O D E L   P A R A M E T E R S
 ===============================
  
 DENSITY FUNCTIONAL POTENTIAL (scf)
    LDA:                               Exchange only                           == Not Default ==
    Gradient Corrections:              Becke88 LYP                             == Not Default ==

 SPIN  (restricted / unrestr.)
    Molecule:                          Restricted                               
    Fragments:                         Restricted                               

 OTHER ASPECTS
    Relativistic Corrections:          scalar (ZORA,MAPA)                       

    Nuclear Charge Density Model:      Point Charge Nuclei                      
    Core Treatment:                    Frozen Orbital(s)                        

    Hyperfine or Zeeman Interaction:   ---                                      

 Settings for Grimme D3 dispersion correction

      damping                        BJ
      s6                          1.000
      s8                          2.700
      a1                          0.430
      a2                          4.236

 Other (technical) parameters

      alpha                      14.000
      version                         4
 


 Fragment File(s)
 ----------------
 C:
         file : /gpfs/home1/yeseo1ee/projects/eda-asm-prediction/ADF_800/adf_outputs/batch_002/dipolar_002823/c1_fragA_ts.results/t21.50BA88D5.C
         jobid: 0
         title: Carbon (TZ2P)
 O:
         file : /gpfs/home1/yeseo1ee/projects/eda-asm-prediction/ADF_800/adf_outputs/batch_002/dipolar_002823/c1_fragA_ts.results/t21.6E90ABAE.O
         jobid: 0
         title: Oxygen (TZ2P)
 N:
         file : /gpfs/home1/yeseo1ee/projects/eda-asm-prediction/ADF_800/adf_outputs/batch_002/dipolar_002823/c1_fragA_ts.results/t21.44EAA48D.N
         jobid: 0
         title: Nitrogen (TZ2P)
 H:
         file : /gpfs/home1/yeseo1ee/projects/eda-asm-prediction/ADF_800/adf_outputs/batch_002/dipolar_002823/c1_fragA_ts.results/t21.6F35CCAB.H
         jobid: 0
         title: Hydrogen (TZ2P)



 ===============
 G E O M E T R Y  ***  3D  Molecule  ***
 ===============
  

 ATOMS
 =====                            X Y Z                    CHARGE
                                (Angstrom)             Nucl     +Core       At.Mass
                       --------------------------    ----------------       -------
    1  C               0.2920   -0.8290   -0.3818      6.00      6.00       12.0000
    2  C               1.1172   -0.5628   -1.5952      6.00      6.00       12.0000
    3  O               0.8572    0.3598   -2.3886      8.00      8.00       15.9949
    4  N               2.1953   -1.3640   -1.8013      7.00      7.00       14.0031
    5  C               3.1069   -1.1371   -2.9026      6.00      6.00       12.0000
    6  C               0.7016   -2.0602    0.3931      6.00      6.00       12.0000
    7  O               1.8091   -2.1891    0.9418      8.00      8.00       15.9949
    8  N              -0.1726   -3.0898    0.3635      7.00      7.00       14.0031
    9  C               0.0000   -4.2592    1.1999      6.00      6.00       12.0000
   10  C              -1.0896   -0.4002   -0.3536      6.00      6.00       12.0000
   11  C              -1.8801   -0.7345    0.8761      6.00      6.00       12.0000
   12  C              -3.2653   -1.0001    0.8298      6.00      6.00       12.0000
   13  C              -3.9928   -1.3179    1.9788      6.00      6.00       12.0000
   14  C              -3.3632   -1.3912    3.2228      6.00      6.00       12.0000
   15  C              -1.9868   -1.1543    3.2935      6.00      6.00       12.0000
   16  C              -1.2654   -0.8333    2.1458      6.00      6.00       12.0000
   17  C              -1.8742   -0.3983   -1.6350      6.00      6.00       12.0000
   18  C              -2.9758    0.4499   -1.8488      6.00      6.00       12.0000
   19  C              -3.7416    0.3671   -3.0128      6.00      6.00       12.0000
   20  C              -3.4333   -0.5775   -3.9969      6.00      6.00       12.0000
   21  C              -2.3594   -1.4482   -3.7910      6.00      6.00       12.0000
   22  C              -1.5981   -1.3630   -2.6234      6.00      6.00       12.0000
   23  H               2.5170   -1.9261   -1.0191      1.00      1.00        1.0078
   24  H               3.7354   -0.2427   -2.7573      1.00      1.00        1.0078
   25  H               2.5476   -1.0101   -3.8404      1.00      1.00        1.0078
   26  H               3.7661   -2.0096   -3.0026      1.00      1.00        1.0078
   27  H              -1.0899   -2.9251   -0.0360      1.00      1.00        1.0078
   28  H               1.0180   -4.6596    1.0965      1.00      1.00        1.0078
   29  H              -0.7190   -5.0295    0.8938      1.00      1.00        1.0078
   30  H              -0.1688   -4.0198    2.2650      1.00      1.00        1.0078
   31  H              -3.7909   -0.9780   -0.1221      1.00      1.00        1.0078
   32  H              -5.0639   -1.5172    1.8931      1.00      1.00        1.0078
   33  H              -3.9320   -1.6390    4.1219      1.00      1.00        1.0078
   34  H              -1.4652   -1.2155    4.2515      1.00      1.00        1.0078
   35  H              -0.1959   -0.6761    2.2546      1.00      1.00        1.0078
   36  H              -3.2368    1.1762   -1.0814      1.00      1.00        1.0078
   37  H              -4.5864    1.0468   -3.1501      1.00      1.00        1.0078
   38  H              -4.0306   -0.6411   -4.9096      1.00      1.00        1.0078
   39  H              -2.1157   -2.2070   -4.5389      1.00      1.00        1.0078
   40  H              -0.7834   -2.0718   -2.4685      1.00      1.00        1.0078


 FRAGMENTS
 =========                                     Atoms in this Fragment     Cart. coord.s (Angstrom)
                                               -------------------------------------------------------
    1  C                                                 1  C            0.2920   -0.8290   -0.3818
    2  C                                                 2  C            1.1172   -0.5628   -1.5952
    3  C                                                 5  C            3.1069   -1.1371   -2.9026
    4  C                                                 6  C            0.7016   -2.0602    0.3931
    5  C                                                 9  C            0.0000   -4.2592    1.1999
    6  C                                                10  C           -1.0896   -0.4002   -0.3536
    7  C                                                11  C           -1.8801   -0.7345    0.8761
    8  C                                                12  C           -3.2653   -1.0001    0.8298
    9  C                                                13  C           -3.9928   -1.3179    1.9788
   10  C                                                14  C           -3.3632   -1.3912    3.2228
   11  C                                                15  C           -1.9868   -1.1543    3.2935
   12  C                                                16  C           -1.2654   -0.8333    2.1458
   13  C                                                17  C           -1.8742   -0.3983   -1.6350
   14  C                                                18  C           -2.9758    0.4499   -1.8488
   15  C                                                19  C           -3.7416    0.3671   -3.0128
   16  C                                                20  C           -3.4333   -0.5775   -3.9969
   17  C                                                21  C           -2.3594   -1.4482   -3.7910
   18  C                                                22  C           -1.5981   -1.3630   -2.6234
   19  O                                                 3  O            0.8572    0.3598   -2.3886
   20  O                                                 7  O            1.8091   -2.1891    0.9418
   21  N                                                 4  N            2.1953   -1.3640   -1.8013
   22  N                                                 8  N           -0.1726   -3.0898    0.3635
   23  H                                                23  H            2.5170   -1.9261   -1.0191
   24  H                                                24  H            3.7354   -0.2427   -2.7573
   25  H                                                25  H            2.5476   -1.0101   -3.8404
   26  H                                                26  H            3.7661   -2.0096   -3.0026
   27  H                                                27  H           -1.0899   -2.9251   -0.0360
   28  H                                                28  H            1.0180   -4.6596    1.0965
   29  H                                                29  H           -0.7190   -5.0295    0.8938
   30  H                                                30  H           -0.1688   -4.0198    2.2650
   31  H                                                31  H           -3.7909   -0.9780   -0.1221
   32  H                                                32  H           -5.0639   -1.5172    1.8931
   33  H                                                33  H           -3.9320   -1.6390    4.1219
   34  H                                                34  H           -1.4652   -1.2155    4.2515
   35  H                                                35  H           -0.1959   -0.6761    2.2546
   36  H                                                36  H           -3.2368    1.1762   -1.0814
   37  H                                                37  H           -4.5864    1.0468   -3.1501
   38  H                                                38  H           -4.0306   -0.6411   -4.9096
   39  H                                                39  H           -2.1157   -2.2070   -4.5389
   40  H                                                40  H           -0.7834   -2.0718   -2.4685



 =====================================
 S Y M M E T R Y ,   E L E C T R O N S
 =====================================
  
 Symmetry: NOSYM

 Irreducible Representations, including subspecies
 -------------------------------------------------
 A


 Configuration of Valence Electrons
 ==================================
 ( determined in the SCF procedure )

 Total:   156

 Net Charge: 0 (Nuclei minus Electrons)

 Aufbau principle for MO occupations will be applied through SCF cycle no.     100
 Thereafter, the program will assign electrons to MOs that are spatially
 similar to the occupied MOs in a "reference" cycle ("KeepOrbitals").
 The reference cycle is always the PREVIOUS cycle: it will evolve with
 the SCF procedure.
 ***************************************************************************************************



                                      ****************************************
                                      *  B U I L D : (Fragments, Functions)  *
                                      ****************************************
  



 =======
 S F O s  ***  (Symmetrized Fragment Orbitals)  ***
 =======
  
 SFOs are linear combinations of (valence) Fragment Orbitals (FOs), such that the SFOs transform as the
 irreducible representations of the (molecular) symmetry group. Each SFO is therefore characterized by
 an irrep of the molecule and by a few (or only one) generating FOs.
 The SFOs constitute a symmetry-adapted basis for the Fock matrix. The MO eigenvector coefficients in
 this basis provide a direct interpretation of the MOs in terms of Frontier Orbital Theory.

 The SFOs are combined with auxiliary Core Functions (CFs) to ensure orthogonalization on the (frozen)
 Core Orbitals (COs). The Core-orthogonalized SFOs (CSFOs) constitute the true Fock basis.

 The FOs, and hence also the (C)SFOs are combinations of the elementary basis functions (BAS). The basis
 functions that participate in the description of the SFOs depend on the irrep. The indices of the
 involved functions are printed below for each irrep.
 (The complete list of primitive basis functions is printed in another section)

 Total nr. of (C)SFOs (summation over all irreps) :   770

 NOTE: a (C)SFO that is defined as a combination of more than one FO is usually NOT normalized.



                                       === A ===
 Nr. of SFOs :  770
 Cartesian basis functions that participate in this irrep (total number =   876) :
      1     2     3     4     5     6     9    12     7    10
     13     8    11    14    15    16    17    18    19    20
     21    22    23    24    25    26    27    28    29    30
     31    32    33    34    35    36    39    42    37    40
     43    38    41    44    45    46    47    48    49    50
     51    52    53    54    55    56    57    58    59    60
     61    62    63    64    65    66    69    72    67    70
     73    68    71    74    75    76    77    78    79    80
     81    82    83    84    85    86    87    88    89    90
     91    92    93    94    95    96    99   102    97   100
    103    98   101   104   105   106   107   108   109   110
    111   112   113   114   115   116   117   118   119   120
    121   122   123   124   125   126   129   132   127   130
    133   128   131   134   135   136   137   138   139   140
    141   142   143   144   145   146   147   148   149   150
    151   152   153   154   155   156   159   162   157   160
    163   158   161   164   165   166   167   168   169   170
    171   172   173   174   175   176   177   178   179   180
    181   182   183   184   185   186   189   192   187   190
    193   188   191   194   195   196   197   198   199   200
    201   202   203   204   205   206   207   208   209   210
    211   212   213   214   215   216   219   222   217   220
    223   218   221   224   225   226   227   228   229   230
    231   232   233   234   235   236   237   238   239   240
    241   242   243   244   245   246   249   252   247   250
    253   248   251   254   255   256   257   258   259   260
    261   262   263   264   265   266   267   268   269   270
    271   272   273   274   275   276   279   282   277   280
    283   278   281   284   285   286   287   288   289   290
    291   292   293   294   295   296   297   298   299   300
    301   302   303   304   305   306   309   312   307   310
    313   308   311   314   315   316   317   318   319   320
    321   322   323   324   325   326   327   328   329   330
    331   332   333   334   335   336   339   342   337   340
    343   338   341   344   345   346   347   348   349   350
    351   352   353   354   355   356   357   358   359   360
    361   362   363   364   365   366   369   372   367   370
    373   368   371   374   375   376   377   378   379   380
    381   382   383   384   385   386   387   388   389   390
    391   392   393   394   395   396   399   402   397   400
    403   398   401   404   405   406   407   408   409   410
    411   412   413   414   415   416   417   418   419   420
    421   422   423   424   425   426   429   432   427   430
    433   428   431   434   435   436   437   438   439   440
    441   442   443   444   445   446   447   448   449   450
    451   452   453   454   455   456   459   462   457   460
    463   458   461   464   465   466   467   468   469   470
    471   472   473   474   475   476   477   478   479   480
    481   482   483   484   485   486   489   492   487   490
    493   488   491   494   495   496   497   498   499   500
    501   502   503   504   505   506   507   508   509   510
    511   512   513   514   515   516   519   522   517   520
    523   518   521   524   525   526   527   528   529   530
    531   532   533   534   535   536   537   538   539   540
    541   542   543   544   545   546   549   552   547   550
    553   548   551   554   555   556   557   558   559   560
    561   562   563   564   565   566   567   568   569   570
    571   572   573   574   575   576   579   582   577   580
    583   578   581   584   585   586   587   588   589   590
    591   592   593   594   595   596   597   598   599   600
    601   602   603   604   605   606   609   612   607   610
    613   608   611   614   615   616   617   618   619   620
    621   622   623   624   625   626   627   628   629   630
    631   632   633   634   635   636   639   642   637   640
    643   638   641   644   645   646   647   648   649   650
    651   652   653   654   655   656   657   658   659   660
    661   662   663   664   665   666   667   668   669   670
    671   672   673   674   675   676   677   678   679   680
    681   682   683   684   685   686   687   688   689   690
    691   692   693   694   695   696   697   698   699   700
    701   702   703   704   705   706   707   708   709   710
    711   712   713   714   715   716   717   718   719   720
    721   722   723   724   725   726   727   728   729   730
    731   732   733   734   735   736   737   738   739   740
    741   742   743   744   745   746   747   748   749   750
    751   752   753   754   755   756   757   758   759   760
    761   762   763   764   765   766   767   768   769   770
    771   772   773   774   775   776   777   778   779   780
    781   782   783   784   785   786   787   788   789   790
    791   792   793   794   795   796   797   798   799   800
    801   802   803   804   805   806   807   808   809   810
    811   812   813   814   815   816   817   818   819   820
    821   822   823   824   825   826   827   828   829   830
    831   832   833   834   835   836   837   838   839   840
    841   842   843   844   845   846   847   848   849   850
    851   852   853   854   855   856   857   858   859   860
    861   862   863   864   865   866   867   868   869   870
    871   872   873   874   875   876

    SFO  (index         Fragment          Generating    Expansion in Fragment Orbitals
  indx  incl.CFs)   Occup   Orb.Energy   FragmentType  Coeff.   Orbital     on Fragment
 --------------------------------------------------------------------------------------
     1       1      2.000     -10.066 au  C             1.00      1 S               1
                        (    -273.921 eV)
     2       2      2.000      -0.501 au  C             1.00      2 S               1
                        (     -13.620 eV)
     3       3       --         0.373 au  C             1.00      3 S               1
                        (      10.158 eV)
     4       4       --         5.405 au  C             1.00      4 S               1
                        (     147.073 eV)
     5       5       --        49.848 au  C             1.00      5 S               1
                        (    1356.422 eV)
     6       6      0.667      -0.193 au  C             1.00      1 P:x             1
                        (      -5.239 eV)
     7       7       --         0.169 au  C             1.00      2 P:x             1
                        (       4.589 eV)
     8       8       --         2.013 au  C             1.00      3 P:x             1
                        (      54.789 eV)
     9       9      0.667      -0.193 au  C             1.00      1 P:y             1
                        (      -5.239 eV)
    10      10       --         0.169 au  C             1.00      2 P:y             1
                        (       4.589 eV)
    11      11       --         2.013 au  C             1.00      3 P:y             1
                        (      54.789 eV)
    12      12      0.667      -0.193 au  C             1.00      1 P:z             1
                        (      -5.239 eV)
    13      13       --         0.169 au  C             1.00      2 P:z             1
                        (       4.589 eV)
    14      14       --         2.013 au  C             1.00      3 P:z             1
                        (      54.789 eV)
    15      15       --         1.243 au  C             1.00      1 D:z2            1
                        (      33.824 eV)
    16      16       --         1.243 au  C             1.00      1 D:x2-y2         1
                        (      33.824 eV)
    17      17       --         1.243 au  C             1.00      1 D:xy            1
                        (      33.824 eV)
    18      18       --         1.243 au  C             1.00      1 D:xz            1
                        (      33.824 eV)
    19      19       --         1.243 au  C             1.00      1 D:yz            1
                        (      33.824 eV)
    20      20       --         4.016 au  C             1.00      1 F:z3            1
                        (     109.271 eV)
    21      21       --         4.016 au  C             1.00      1 F:z             1
                        (     109.271 eV)
    22      22       --         4.016 au  C             1.00      1 F:xyz           1
                        (     109.271 eV)
    23      23       --         4.016 au  C             1.00      1 F:z2x           1
                        (     109.271 eV)
    24      24       --         4.016 au  C             1.00      1 F:z2y           1
                        (     109.271 eV)
    25      25       --         4.016 au  C             1.00      1 F:x             1
                        (     109.271 eV)
    26      26       --         4.016 au  C             1.00      1 F:y             1
                        (     109.271 eV)
    27      27      2.000     -10.066 au  C             1.00      1 S               2
                        (    -273.921 eV)
    28      28      2.000      -0.501 au  C             1.00      2 S               2
                        (     -13.620 eV)
    29      29       --         0.373 au  C             1.00      3 S               2
                        (      10.158 eV)
    30      30       --         5.405 au  C             1.00      4 S               2
                        (     147.073 eV)
    31      31       --        49.848 au  C             1.00      5 S               2
                        (    1356.422 eV)
    32      32      0.667      -0.193 au  C             1.00      1 P:x             2
                        (      -5.239 eV)
    33      33       --         0.169 au  C             1.00      2 P:x             2
                        (       4.589 eV)
    34      34       --         2.013 au  C             1.00      3 P:x             2
                        (      54.789 eV)
    35      35      0.667      -0.193 au  C             1.00      1 P:y             2
                        (      -5.239 eV)
    36      36       --         0.169 au  C             1.00      2 P:y             2
                        (       4.589 eV)
    37      37       --         2.013 au  C             1.00      3 P:y             2
                        (      54.789 eV)
    38      38      0.667      -0.193 au  C             1.00      1 P:z             2
                        (      -5.239 eV)
    39      39       --         0.169 au  C             1.00      2 P:z             2
                        (       4.589 eV)
    40      40       --         2.013 au  C             1.00      3 P:z             2
                        (      54.789 eV)
    41      41       --         1.243 au  C             1.00      1 D:z2            2
                        (      33.824 eV)
    42      42       --         1.243 au  C             1.00      1 D:x2-y2         2
                        (      33.824 eV)
    43      43       --         1.243 au  C             1.00      1 D:xy            2
                        (      33.824 eV)
    44      44       --         1.243 au  C             1.00      1 D:xz            2
                        (      33.824 eV)
    45      45       --         1.243 au  C             1.00      1 D:yz            2
                        (      33.824 eV)
    46      46       --         4.016 au  C             1.00      1 F:z3            2
                        (     109.271 eV)
    47      47       --         4.016 au  C             1.00      1 F:z             2
                        (     109.271 eV)
    48      48       --         4.016 au  C             1.00      1 F:xyz           2
                        (     109.271 eV)
    49      49       --         4.016 au  C             1.00      1 F:z2x           2
                        (     109.271 eV)
    50      50       --         4.016 au  C             1.00      1 F:z2y           2
                        (     109.271 eV)
    51      51       --         4.016 au  C             1.00      1 F:x             2
                        (     109.271 eV)
    52      52       --         4.016 au  C             1.00      1 F:y             2
                        (     109.271 eV)
    53      53      2.000     -10.066 au  C             1.00      1 S               3
                        (    -273.921 eV)
    54      54      2.000      -0.501 au  C             1.00      2 S               3
                        (     -13.620 eV)
    55      55       --         0.373 au  C             1.00      3 S               3
                        (      10.158 eV)
    56      56       --         5.405 au  C             1.00      4 S               3
                        (     147.073 eV)
    57      57       --        49.848 au  C             1.00      5 S               3
                        (    1356.422 eV)
    58      58      0.667      -0.193 au  C             1.00      1 P:x             3
                        (      -5.239 eV)
    59      59       --         0.169 au  C             1.00      2 P:x             3
                        (       4.589 eV)
    60      60       --         2.013 au  C             1.00      3 P:x             3
                        (      54.789 eV)
    61      61      0.667      -0.193 au  C             1.00      1 P:y             3
                        (      -5.239 eV)
    62      62       --         0.169 au  C             1.00      2 P:y             3
                        (       4.589 eV)
    63      63       --         2.013 au  C             1.00      3 P:y             3
                        (      54.789 eV)
    64      64      0.667      -0.193 au  C             1.00      1 P:z             3
                        (      -5.239 eV)
    65      65       --         0.169 au  C             1.00      2 P:z             3
                        (       4.589 eV)
    66      66       --         2.013 au  C             1.00      3 P:z             3
                        (      54.789 eV)
    67      67       --         1.243 au  C             1.00      1 D:z2            3
                        (      33.824 eV)
    68      68       --         1.243 au  C             1.00      1 D:x2-y2         3
                        (      33.824 eV)
    69      69       --         1.243 au  C             1.00      1 D:xy            3
                        (      33.824 eV)
    70      70       --         1.243 au  C             1.00      1 D:xz            3
                        (      33.824 eV)
    71      71       --         1.243 au  C             1.00      1 D:yz            3
                        (      33.824 eV)
    72      72       --         4.016 au  C             1.00      1 F:z3            3
                        (     109.271 eV)
    73      73       --         4.016 au  C             1.00      1 F:z             3
                        (     109.271 eV)
    74      74       --         4.016 au  C             1.00      1 F:xyz           3
                        (     109.271 eV)
    75      75       --         4.016 au  C             1.00      1 F:z2x           3
                        (     109.271 eV)
    76      76       --         4.016 au  C             1.00      1 F:z2y           3
                        (     109.271 eV)
    77      77       --         4.016 au  C             1.00      1 F:x             3
                        (     109.271 eV)
    78      78       --         4.016 au  C             1.00      1 F:y             3
                        (     109.271 eV)
    79      79      2.000     -10.066 au  C             1.00      1 S               4
                        (    -273.921 eV)
    80      80      2.000      -0.501 au  C             1.00      2 S               4
                        (     -13.620 eV)
    81      81       --         0.373 au  C             1.00      3 S               4
                        (      10.158 eV)
    82      82       --         5.405 au  C             1.00      4 S               4
                        (     147.073 eV)
    83      83       --        49.848 au  C             1.00      5 S               4
                        (    1356.422 eV)
    84      84      0.667      -0.193 au  C             1.00      1 P:x             4
                        (      -5.239 eV)
    85      85       --         0.169 au  C             1.00      2 P:x             4
                        (       4.589 eV)
    86      86       --         2.013 au  C             1.00      3 P:x             4
                        (      54.789 eV)
    87      87      0.667      -0.193 au  C             1.00      1 P:y             4
                        (      -5.239 eV)
    88      88       --         0.169 au  C             1.00      2 P:y             4
                        (       4.589 eV)
    89      89       --         2.013 au  C             1.00      3 P:y             4
                        (      54.789 eV)
    90      90      0.667      -0.193 au  C             1.00      1 P:z             4
                        (      -5.239 eV)
    91      91       --         0.169 au  C             1.00      2 P:z             4
                        (       4.589 eV)
    92      92       --         2.013 au  C             1.00      3 P:z             4
                        (      54.789 eV)
    93      93       --         1.243 au  C             1.00      1 D:z2            4
                        (      33.824 eV)
    94      94       --         1.243 au  C             1.00      1 D:x2-y2         4
                        (      33.824 eV)
    95      95       --         1.243 au  C             1.00      1 D:xy            4
                        (      33.824 eV)
    96      96       --         1.243 au  C             1.00      1 D:xz            4
                        (      33.824 eV)
    97      97       --         1.243 au  C             1.00      1 D:yz            4
                        (      33.824 eV)
    98      98       --         4.016 au  C             1.00      1 F:z3            4
                        (     109.271 eV)
    99      99       --         4.016 au  C             1.00      1 F:z             4
                        (     109.271 eV)
   100     100       --         4.016 au  C             1.00      1 F:xyz           4
                        (     109.271 eV)
   101     101       --         4.016 au  C             1.00      1 F:z2x           4
                        (     109.271 eV)
   102     102       --         4.016 au  C             1.00      1 F:z2y           4
                        (     109.271 eV)
   103     103       --         4.016 au  C             1.00      1 F:x             4
                        (     109.271 eV)
   104     104       --         4.016 au  C             1.00      1 F:y             4
                        (     109.271 eV)
   105     105      2.000     -10.066 au  C             1.00      1 S               5
                        (    -273.921 eV)
   106     106      2.000      -0.501 au  C             1.00      2 S               5
                        (     -13.620 eV)
   107     107       --         0.373 au  C             1.00      3 S               5
                        (      10.158 eV)
   108     108       --         5.405 au  C             1.00      4 S               5
                        (     147.073 eV)
   109     109       --        49.848 au  C             1.00      5 S               5
                        (    1356.422 eV)
   110     110      0.667      -0.193 au  C             1.00      1 P:x             5
                        (      -5.239 eV)
   111     111       --         0.169 au  C             1.00      2 P:x             5
                        (       4.589 eV)
   112     112       --         2.013 au  C             1.00      3 P:x             5
                        (      54.789 eV)
   113     113      0.667      -0.193 au  C             1.00      1 P:y             5
                        (      -5.239 eV)
   114     114       --         0.169 au  C             1.00      2 P:y             5
                        (       4.589 eV)
   115     115       --         2.013 au  C             1.00      3 P:y             5
                        (      54.789 eV)
   116     116      0.667      -0.193 au  C             1.00      1 P:z             5
                        (      -5.239 eV)
   117     117       --         0.169 au  C             1.00      2 P:z             5
                        (       4.589 eV)
   118     118       --         2.013 au  C             1.00      3 P:z             5
                        (      54.789 eV)
   119     119       --         1.243 au  C             1.00      1 D:z2            5
                        (      33.824 eV)
   120     120       --         1.243 au  C             1.00      1 D:x2-y2         5
                        (      33.824 eV)
   121     121       --         1.243 au  C             1.00      1 D:xy            5
                        (      33.824 eV)
   122     122       --         1.243 au  C             1.00      1 D:xz            5
                        (      33.824 eV)
   123     123       --         1.243 au  C             1.00      1 D:yz            5
                        (      33.824 eV)
   124     124       --         4.016 au  C             1.00      1 F:z3            5
                        (     109.271 eV)
   125     125       --         4.016 au  C             1.00      1 F:z             5
                        (     109.271 eV)
   126     126       --         4.016 au  C             1.00      1 F:xyz           5
                        (     109.271 eV)
   127     127       --         4.016 au  C             1.00      1 F:z2x           5
                        (     109.271 eV)
   128     128       --         4.016 au  C             1.00      1 F:z2y           5
                        (     109.271 eV)
   129     129       --         4.016 au  C             1.00      1 F:x             5
                        (     109.271 eV)
   130     130       --         4.016 au  C             1.00      1 F:y             5
                        (     109.271 eV)
   131     131      2.000     -10.066 au  C             1.00      1 S               6
                        (    -273.921 eV)
   132     132      2.000      -0.501 au  C             1.00      2 S               6
                        (     -13.620 eV)
   133     133       --         0.373 au  C             1.00      3 S               6
                        (      10.158 eV)
   134     134       --         5.405 au  C             1.00      4 S               6
                        (     147.073 eV)
   135     135       --        49.848 au  C             1.00      5 S               6
                        (    1356.422 eV)
   136     136      0.667      -0.193 au  C             1.00      1 P:x             6
                        (      -5.239 eV)
   137     137       --         0.169 au  C             1.00      2 P:x             6
                        (       4.589 eV)
   138     138       --         2.013 au  C             1.00      3 P:x             6
                        (      54.789 eV)
   139     139      0.667      -0.193 au  C             1.00      1 P:y             6
                        (      -5.239 eV)
   140     140       --         0.169 au  C             1.00      2 P:y             6
                        (       4.589 eV)
   141     141       --         2.013 au  C             1.00      3 P:y             6
                        (      54.789 eV)
   142     142      0.667      -0.193 au  C             1.00      1 P:z             6
                        (      -5.239 eV)
   143     143       --         0.169 au  C             1.00      2 P:z             6
                        (       4.589 eV)
   144     144       --         2.013 au  C             1.00      3 P:z             6
                        (      54.789 eV)
   145     145       --         1.243 au  C             1.00      1 D:z2            6
                        (      33.824 eV)
   146     146       --         1.243 au  C             1.00      1 D:x2-y2         6
                        (      33.824 eV)
   147     147       --         1.243 au  C             1.00      1 D:xy            6
                        (      33.824 eV)
   148     148       --         1.243 au  C             1.00      1 D:xz            6
                        (      33.824 eV)
   149     149       --         1.243 au  C             1.00      1 D:yz            6
                        (      33.824 eV)
   150     150       --         4.016 au  C             1.00      1 F:z3            6
                        (     109.271 eV)
   151     151       --         4.016 au  C             1.00      1 F:z             6
                        (     109.271 eV)
   152     152       --         4.016 au  C             1.00      1 F:xyz           6
                        (     109.271 eV)
   153     153       --         4.016 au  C             1.00      1 F:z2x           6
                        (     109.271 eV)
   154     154       --         4.016 au  C             1.00      1 F:z2y           6
                        (     109.271 eV)
   155     155       --         4.016 au  C             1.00      1 F:x             6
                        (     109.271 eV)
   156     156       --         4.016 au  C             1.00      1 F:y             6
                        (     109.271 eV)
   157     157      2.000     -10.066 au  C             1.00      1 S               7
                        (    -273.921 eV)
   158     158      2.000      -0.501 au  C             1.00      2 S               7
                        (     -13.620 eV)
   159     159       --         0.373 au  C             1.00      3 S               7
                        (      10.158 eV)
   160     160       --         5.405 au  C             1.00      4 S               7
                        (     147.073 eV)
   161     161       --        49.848 au  C             1.00      5 S               7
                        (    1356.422 eV)
   162     162      0.667      -0.193 au  C             1.00      1 P:x             7
                        (      -5.239 eV)
   163     163       --         0.169 au  C             1.00      2 P:x             7
                        (       4.589 eV)
   164     164       --         2.013 au  C             1.00      3 P:x             7
                        (      54.789 eV)
   165     165      0.667      -0.193 au  C             1.00      1 P:y             7
                        (      -5.239 eV)
   166     166       --         0.169 au  C             1.00      2 P:y             7
                        (       4.589 eV)
   167     167       --         2.013 au  C             1.00      3 P:y             7
                        (      54.789 eV)
   168     168      0.667      -0.193 au  C             1.00      1 P:z             7
                        (      -5.239 eV)
   169     169       --         0.169 au  C             1.00      2 P:z             7
                        (       4.589 eV)
   170     170       --         2.013 au  C             1.00      3 P:z             7
                        (      54.789 eV)
   171     171       --         1.243 au  C             1.00      1 D:z2            7
                        (      33.824 eV)
   172     172       --         1.243 au  C             1.00      1 D:x2-y2         7
                        (      33.824 eV)
   173     173       --         1.243 au  C             1.00      1 D:xy            7
                        (      33.824 eV)
   174     174       --         1.243 au  C             1.00      1 D:xz            7
                        (      33.824 eV)
   175     175       --         1.243 au  C             1.00      1 D:yz            7
                        (      33.824 eV)
   176     176       --         4.016 au  C             1.00      1 F:z3            7
                        (     109.271 eV)
   177     177       --         4.016 au  C             1.00      1 F:z             7
                        (     109.271 eV)
   178     178       --         4.016 au  C             1.00      1 F:xyz           7
                        (     109.271 eV)
   179     179       --         4.016 au  C             1.00      1 F:z2x           7
                        (     109.271 eV)
   180     180       --         4.016 au  C             1.00      1 F:z2y           7
                        (     109.271 eV)
   181     181       --         4.016 au  C             1.00      1 F:x             7
                        (     109.271 eV)
   182     182       --         4.016 au  C             1.00      1 F:y             7
                        (     109.271 eV)
   183     183      2.000     -10.066 au  C             1.00      1 S               8
                        (    -273.921 eV)
   184     184      2.000      -0.501 au  C             1.00      2 S               8
                        (     -13.620 eV)
   185     185       --         0.373 au  C             1.00      3 S               8
                        (      10.158 eV)
   186     186       --         5.405 au  C             1.00      4 S               8
                        (     147.073 eV)
   187     187       --        49.848 au  C             1.00      5 S               8
                        (    1356.422 eV)
   188     188      0.667      -0.193 au  C             1.00      1 P:x             8
                        (      -5.239 eV)
   189     189       --         0.169 au  C             1.00      2 P:x             8
                        (       4.589 eV)
   190     190       --         2.013 au  C             1.00      3 P:x             8
                        (      54.789 eV)
   191     191      0.667      -0.193 au  C             1.00      1 P:y             8
                        (      -5.239 eV)
   192     192       --         0.169 au  C             1.00      2 P:y             8
                        (       4.589 eV)
   193     193       --         2.013 au  C             1.00      3 P:y             8
                        (      54.789 eV)
   194     194      0.667      -0.193 au  C             1.00      1 P:z             8
                        (      -5.239 eV)
   195     195       --         0.169 au  C             1.00      2 P:z             8
                        (       4.589 eV)
   196     196       --         2.013 au  C             1.00      3 P:z             8
                        (      54.789 eV)
   197     197       --         1.243 au  C             1.00      1 D:z2            8
                        (      33.824 eV)
   198     198       --         1.243 au  C             1.00      1 D:x2-y2         8
                        (      33.824 eV)
   199     199       --         1.243 au  C             1.00      1 D:xy            8
                        (      33.824 eV)
   200     200       --         1.243 au  C             1.00      1 D:xz            8
                        (      33.824 eV)
   201     201       --         1.243 au  C             1.00      1 D:yz            8
                        (      33.824 eV)
   202     202       --         4.016 au  C             1.00      1 F:z3            8
                        (     109.271 eV)
   203     203       --         4.016 au  C             1.00      1 F:z             8
                        (     109.271 eV)
   204     204       --         4.016 au  C             1.00      1 F:xyz           8
                        (     109.271 eV)
   205     205       --         4.016 au  C             1.00      1 F:z2x           8
                        (     109.271 eV)
   206     206       --         4.016 au  C             1.00      1 F:z2y           8
                        (     109.271 eV)
   207     207       --         4.016 au  C             1.00      1 F:x             8
                        (     109.271 eV)
   208     208       --         4.016 au  C             1.00      1 F:y             8
                        (     109.271 eV)
   209     209      2.000     -10.066 au  C             1.00      1 S               9
                        (    -273.921 eV)
   210     210      2.000      -0.501 au  C             1.00      2 S               9
                        (     -13.620 eV)
   211     211       --         0.373 au  C             1.00      3 S               9
                        (      10.158 eV)
   212     212       --         5.405 au  C             1.00      4 S               9
                        (     147.073 eV)
   213     213       --        49.848 au  C             1.00      5 S               9
                        (    1356.422 eV)
   214     214      0.667      -0.193 au  C             1.00      1 P:x             9
                        (      -5.239 eV)
   215     215       --         0.169 au  C             1.00      2 P:x             9
                        (       4.589 eV)
   216     216       --         2.013 au  C             1.00      3 P:x             9
                        (      54.789 eV)
   217     217      0.667      -0.193 au  C             1.00      1 P:y             9
                        (      -5.239 eV)
   218     218       --         0.169 au  C             1.00      2 P:y             9
                        (       4.589 eV)
   219     219       --         2.013 au  C             1.00      3 P:y             9
                        (      54.789 eV)
   220     220      0.667      -0.193 au  C             1.00      1 P:z             9
                        (      -5.239 eV)
   221     221       --         0.169 au  C             1.00      2 P:z             9
                        (       4.589 eV)
   222     222       --         2.013 au  C             1.00      3 P:z             9
                        (      54.789 eV)
   223     223       --         1.243 au  C             1.00      1 D:z2            9
                        (      33.824 eV)
   224     224       --         1.243 au  C             1.00      1 D:x2-y2         9
                        (      33.824 eV)
   225     225       --         1.243 au  C             1.00      1 D:xy            9
                        (      33.824 eV)
   226     226       --         1.243 au  C             1.00      1 D:xz            9
                        (      33.824 eV)
   227     227       --         1.243 au  C             1.00      1 D:yz            9
                        (      33.824 eV)
   228     228       --         4.016 au  C             1.00      1 F:z3            9
                        (     109.271 eV)
   229     229       --         4.016 au  C             1.00      1 F:z             9
                        (     109.271 eV)
   230     230       --         4.016 au  C             1.00      1 F:xyz           9
                        (     109.271 eV)
   231     231       --         4.016 au  C             1.00      1 F:z2x           9
                        (     109.271 eV)
   232     232       --         4.016 au  C             1.00      1 F:z2y           9
                        (     109.271 eV)
   233     233       --         4.016 au  C             1.00      1 F:x             9
                        (     109.271 eV)
   234     234       --         4.016 au  C             1.00      1 F:y             9
                        (     109.271 eV)
   235     235      2.000     -10.066 au  C             1.00      1 S              10
                        (    -273.921 eV)
   236     236      2.000      -0.501 au  C             1.00      2 S              10
                        (     -13.620 eV)
   237     237       --         0.373 au  C             1.00      3 S              10
                        (      10.158 eV)
   238     238       --         5.405 au  C             1.00      4 S              10
                        (     147.073 eV)
   239     239       --        49.848 au  C             1.00      5 S              10
                        (    1356.422 eV)
   240     240      0.667      -0.193 au  C             1.00      1 P:x            10
                        (      -5.239 eV)
   241     241       --         0.169 au  C             1.00      2 P:x            10
                        (       4.589 eV)
   242     242       --         2.013 au  C             1.00      3 P:x            10
                        (      54.789 eV)
   243     243      0.667      -0.193 au  C             1.00      1 P:y            10
                        (      -5.239 eV)
   244     244       --         0.169 au  C             1.00      2 P:y            10
                        (       4.589 eV)
   245     245       --         2.013 au  C             1.00      3 P:y            10
                        (      54.789 eV)
   246     246      0.667      -0.193 au  C             1.00      1 P:z            10
                        (      -5.239 eV)
   247     247       --         0.169 au  C             1.00      2 P:z            10
                        (       4.589 eV)
   248     248       --         2.013 au  C             1.00      3 P:z            10
                        (      54.789 eV)
   249     249       --         1.243 au  C             1.00      1 D:z2           10
                        (      33.824 eV)
   250     250       --         1.243 au  C             1.00      1 D:x2-y2        10
                        (      33.824 eV)
   251     251       --         1.243 au  C             1.00      1 D:xy           10
                        (      33.824 eV)
   252     252       --         1.243 au  C             1.00      1 D:xz           10
                        (      33.824 eV)
   253     253       --         1.243 au  C             1.00      1 D:yz           10
                        (      33.824 eV)
   254     254       --         4.016 au  C             1.00      1 F:z3           10
                        (     109.271 eV)
   255     255       --         4.016 au  C             1.00      1 F:z            10
                        (     109.271 eV)
   256     256       --         4.016 au  C             1.00      1 F:xyz          10
                        (     109.271 eV)
   257     257       --         4.016 au  C             1.00      1 F:z2x          10
                        (     109.271 eV)
   258     258       --         4.016 au  C             1.00      1 F:z2y          10
                        (     109.271 eV)
   259     259       --         4.016 au  C             1.00      1 F:x            10
                        (     109.271 eV)
   260     260       --         4.016 au  C             1.00      1 F:y            10
                        (     109.271 eV)
   261     261      2.000     -10.066 au  C             1.00      1 S              11
                        (    -273.921 eV)
   262     262      2.000      -0.501 au  C             1.00      2 S              11
                        (     -13.620 eV)
   263     263       --         0.373 au  C             1.00      3 S              11
                        (      10.158 eV)
   264     264       --         5.405 au  C             1.00      4 S              11
                        (     147.073 eV)
   265     265       --        49.848 au  C             1.00      5 S              11
                        (    1356.422 eV)
   266     266      0.667      -0.193 au  C             1.00      1 P:x            11
                        (      -5.239 eV)
   267     267       --         0.169 au  C             1.00      2 P:x            11
                        (       4.589 eV)
   268     268       --         2.013 au  C             1.00      3 P:x            11
                        (      54.789 eV)
   269     269      0.667      -0.193 au  C             1.00      1 P:y            11
                        (      -5.239 eV)
   270     270       --         0.169 au  C             1.00      2 P:y            11
                        (       4.589 eV)
   271     271       --         2.013 au  C             1.00      3 P:y            11
                        (      54.789 eV)
   272     272      0.667      -0.193 au  C             1.00      1 P:z            11
                        (      -5.239 eV)
   273     273       --         0.169 au  C             1.00      2 P:z            11
                        (       4.589 eV)
   274     274       --         2.013 au  C             1.00      3 P:z            11
                        (      54.789 eV)
   275     275       --         1.243 au  C             1.00      1 D:z2           11
                        (      33.824 eV)
   276     276       --         1.243 au  C             1.00      1 D:x2-y2        11
                        (      33.824 eV)
   277     277       --         1.243 au  C             1.00      1 D:xy           11
                        (      33.824 eV)
   278     278       --         1.243 au  C             1.00      1 D:xz           11
                        (      33.824 eV)
   279     279       --         1.243 au  C             1.00      1 D:yz           11
                        (      33.824 eV)
   280     280       --         4.016 au  C             1.00      1 F:z3           11
                        (     109.271 eV)
   281     281       --         4.016 au  C             1.00      1 F:z            11
                        (     109.271 eV)
   282     282       --         4.016 au  C             1.00      1 F:xyz          11
                        (     109.271 eV)
   283     283       --         4.016 au  C             1.00      1 F:z2x          11
                        (     109.271 eV)
   284     284       --         4.016 au  C             1.00      1 F:z2y          11
                        (     109.271 eV)
   285     285       --         4.016 au  C             1.00      1 F:x            11
                        (     109.271 eV)
   286     286       --         4.016 au  C             1.00      1 F:y            11
                        (     109.271 eV)
   287     287      2.000     -10.066 au  C             1.00      1 S              12
                        (    -273.921 eV)
   288     288      2.000      -0.501 au  C             1.00      2 S              12
                        (     -13.620 eV)
   289     289       --         0.373 au  C             1.00      3 S              12
                        (      10.158 eV)
   290     290       --         5.405 au  C             1.00      4 S              12
                        (     147.073 eV)
   291     291       --        49.848 au  C             1.00      5 S              12
                        (    1356.422 eV)
   292     292      0.667      -0.193 au  C             1.00      1 P:x            12
                        (      -5.239 eV)
   293     293       --         0.169 au  C             1.00      2 P:x            12
                        (       4.589 eV)
   294     294       --         2.013 au  C             1.00      3 P:x            12
                        (      54.789 eV)
   295     295      0.667      -0.193 au  C             1.00      1 P:y            12
                        (      -5.239 eV)
   296     296       --         0.169 au  C             1.00      2 P:y            12
                        (       4.589 eV)
   297     297       --         2.013 au  C             1.00      3 P:y            12
                        (      54.789 eV)
   298     298      0.667      -0.193 au  C             1.00      1 P:z            12
                        (      -5.239 eV)
   299     299       --         0.169 au  C             1.00      2 P:z            12
                        (       4.589 eV)
   300     300       --         2.013 au  C             1.00      3 P:z            12
                        (      54.789 eV)
   301     301       --         1.243 au  C             1.00      1 D:z2           12
                        (      33.824 eV)
   302     302       --         1.243 au  C             1.00      1 D:x2-y2        12
                        (      33.824 eV)
   303     303       --         1.243 au  C             1.00      1 D:xy           12
                        (      33.824 eV)
   304     304       --         1.243 au  C             1.00      1 D:xz           12
                        (      33.824 eV)
   305     305       --         1.243 au  C             1.00      1 D:yz           12
                        (      33.824 eV)
   306     306       --         4.016 au  C             1.00      1 F:z3           12
                        (     109.271 eV)
   307     307       --         4.016 au  C             1.00      1 F:z            12
                        (     109.271 eV)
   308     308       --         4.016 au  C             1.00      1 F:xyz          12
                        (     109.271 eV)
   309     309       --         4.016 au  C             1.00      1 F:z2x          12
                        (     109.271 eV)
   310     310       --         4.016 au  C             1.00      1 F:z2y          12
                        (     109.271 eV)
   311     311       --         4.016 au  C             1.00      1 F:x            12
                        (     109.271 eV)
   312     312       --         4.016 au  C             1.00      1 F:y            12
                        (     109.271 eV)
   313     313      2.000     -10.066 au  C             1.00      1 S              13
                        (    -273.921 eV)
   314     314      2.000      -0.501 au  C             1.00      2 S              13
                        (     -13.620 eV)
   315     315       --         0.373 au  C             1.00      3 S              13
                        (      10.158 eV)
   316     316       --         5.405 au  C             1.00      4 S              13
                        (     147.073 eV)
   317     317       --        49.848 au  C             1.00      5 S              13
                        (    1356.422 eV)
   318     318      0.667      -0.193 au  C             1.00      1 P:x            13
                        (      -5.239 eV)
   319     319       --         0.169 au  C             1.00      2 P:x            13
                        (       4.589 eV)
   320     320       --         2.013 au  C             1.00      3 P:x            13
                        (      54.789 eV)
   321     321      0.667      -0.193 au  C             1.00      1 P:y            13
                        (      -5.239 eV)
   322     322       --         0.169 au  C             1.00      2 P:y            13
                        (       4.589 eV)
   323     323       --         2.013 au  C             1.00      3 P:y            13
                        (      54.789 eV)
   324     324      0.667      -0.193 au  C             1.00      1 P:z            13
                        (      -5.239 eV)
   325     325       --         0.169 au  C             1.00      2 P:z            13
                        (       4.589 eV)
   326     326       --         2.013 au  C             1.00      3 P:z            13
                        (      54.789 eV)
   327     327       --         1.243 au  C             1.00      1 D:z2           13
                        (      33.824 eV)
   328     328       --         1.243 au  C             1.00      1 D:x2-y2        13
                        (      33.824 eV)
   329     329       --         1.243 au  C             1.00      1 D:xy           13
                        (      33.824 eV)
   330     330       --         1.243 au  C             1.00      1 D:xz           13
                        (      33.824 eV)
   331     331       --         1.243 au  C             1.00      1 D:yz           13
                        (      33.824 eV)
   332     332       --         4.016 au  C             1.00      1 F:z3           13
                        (     109.271 eV)
   333     333       --         4.016 au  C             1.00      1 F:z            13
                        (     109.271 eV)
   334     334       --         4.016 au  C             1.00      1 F:xyz          13
                        (     109.271 eV)
   335     335       --         4.016 au  C             1.00      1 F:z2x          13
                        (     109.271 eV)
   336     336       --         4.016 au  C             1.00      1 F:z2y          13
                        (     109.271 eV)
   337     337       --         4.016 au  C             1.00      1 F:x            13
                        (     109.271 eV)
   338     338       --         4.016 au  C             1.00      1 F:y            13
                        (     109.271 eV)
   339     339      2.000     -10.066 au  C             1.00      1 S              14
                        (    -273.921 eV)
   340     340      2.000      -0.501 au  C             1.00      2 S              14
                        (     -13.620 eV)
   341     341       --         0.373 au  C             1.00      3 S              14
                        (      10.158 eV)
   342     342       --         5.405 au  C             1.00      4 S              14
                        (     147.073 eV)
   343     343       --        49.848 au  C             1.00      5 S              14
                        (    1356.422 eV)
   344     344      0.667      -0.193 au  C             1.00      1 P:x            14
                        (      -5.239 eV)
   345     345       --         0.169 au  C             1.00      2 P:x            14
                        (       4.589 eV)
   346     346       --         2.013 au  C             1.00      3 P:x            14
                        (      54.789 eV)
   347     347      0.667      -0.193 au  C             1.00      1 P:y            14
                        (      -5.239 eV)
   348     348       --         0.169 au  C             1.00      2 P:y            14
                        (       4.589 eV)
   349     349       --         2.013 au  C             1.00      3 P:y            14
                        (      54.789 eV)
   350     350      0.667      -0.193 au  C             1.00      1 P:z            14
                        (      -5.239 eV)
   351     351       --         0.169 au  C             1.00      2 P:z            14
                        (       4.589 eV)
   352     352       --         2.013 au  C             1.00      3 P:z            14
                        (      54.789 eV)
   353     353       --         1.243 au  C             1.00      1 D:z2           14
                        (      33.824 eV)
   354     354       --         1.243 au  C             1.00      1 D:x2-y2        14
                        (      33.824 eV)
   355     355       --         1.243 au  C             1.00      1 D:xy           14
                        (      33.824 eV)
   356     356       --         1.243 au  C             1.00      1 D:xz           14
                        (      33.824 eV)
   357     357       --         1.243 au  C             1.00      1 D:yz           14
                        (      33.824 eV)
   358     358       --         4.016 au  C             1.00      1 F:z3           14
                        (     109.271 eV)
   359     359       --         4.016 au  C             1.00      1 F:z            14
                        (     109.271 eV)
   360     360       --         4.016 au  C             1.00      1 F:xyz          14
                        (     109.271 eV)
   361     361       --         4.016 au  C             1.00      1 F:z2x          14
                        (     109.271 eV)
   362     362       --         4.016 au  C             1.00      1 F:z2y          14
                        (     109.271 eV)
   363     363       --         4.016 au  C             1.00      1 F:x            14
                        (     109.271 eV)
   364     364       --         4.016 au  C             1.00      1 F:y            14
                        (     109.271 eV)
   365     365      2.000     -10.066 au  C             1.00      1 S              15
                        (    -273.921 eV)
   366     366      2.000      -0.501 au  C             1.00      2 S              15
                        (     -13.620 eV)
   367     367       --         0.373 au  C             1.00      3 S              15
                        (      10.158 eV)
   368     368       --         5.405 au  C             1.00      4 S              15
                        (     147.073 eV)
   369     369       --        49.848 au  C             1.00      5 S              15
                        (    1356.422 eV)
   370     370      0.667      -0.193 au  C             1.00      1 P:x            15
                        (      -5.239 eV)
   371     371       --         0.169 au  C             1.00      2 P:x            15
                        (       4.589 eV)
   372     372       --         2.013 au  C             1.00      3 P:x            15
                        (      54.789 eV)
   373     373      0.667      -0.193 au  C             1.00      1 P:y            15
                        (      -5.239 eV)
   374     374       --         0.169 au  C             1.00      2 P:y            15
                        (       4.589 eV)
   375     375       --         2.013 au  C             1.00      3 P:y            15
                        (      54.789 eV)
   376     376      0.667      -0.193 au  C             1.00      1 P:z            15
                        (      -5.239 eV)
   377     377       --         0.169 au  C             1.00      2 P:z            15
                        (       4.589 eV)
   378     378       --         2.013 au  C             1.00      3 P:z            15
                        (      54.789 eV)
   379     379       --         1.243 au  C             1.00      1 D:z2           15
                        (      33.824 eV)
   380     380       --         1.243 au  C             1.00      1 D:x2-y2        15
                        (      33.824 eV)
   381     381       --         1.243 au  C             1.00      1 D:xy           15
                        (      33.824 eV)
   382     382       --         1.243 au  C             1.00      1 D:xz           15
                        (      33.824 eV)
   383     383       --         1.243 au  C             1.00      1 D:yz           15
                        (      33.824 eV)
   384     384       --         4.016 au  C             1.00      1 F:z3           15
                        (     109.271 eV)
   385     385       --         4.016 au  C             1.00      1 F:z            15
                        (     109.271 eV)
   386     386       --         4.016 au  C             1.00      1 F:xyz          15
                        (     109.271 eV)
   387     387       --         4.016 au  C             1.00      1 F:z2x          15
                        (     109.271 eV)
   388     388       --         4.016 au  C             1.00      1 F:z2y          15
                        (     109.271 eV)
   389     389       --         4.016 au  C             1.00      1 F:x            15
                        (     109.271 eV)
   390     390       --         4.016 au  C             1.00      1 F:y            15
                        (     109.271 eV)
   391     391      2.000     -10.066 au  C             1.00      1 S              16
                        (    -273.921 eV)
   392     392      2.000      -0.501 au  C             1.00      2 S              16
                        (     -13.620 eV)
   393     393       --         0.373 au  C             1.00      3 S              16
                        (      10.158 eV)
   394     394       --         5.405 au  C             1.00      4 S              16
                        (     147.073 eV)
   395     395       --        49.848 au  C             1.00      5 S              16
                        (    1356.422 eV)
   396     396      0.667      -0.193 au  C             1.00      1 P:x            16
                        (      -5.239 eV)
   397     397       --         0.169 au  C             1.00      2 P:x            16
                        (       4.589 eV)
   398     398       --         2.013 au  C             1.00      3 P:x            16
                        (      54.789 eV)
   399     399      0.667      -0.193 au  C             1.00      1 P:y            16
                        (      -5.239 eV)
   400     400       --         0.169 au  C             1.00      2 P:y            16
                        (       4.589 eV)
   401     401       --         2.013 au  C             1.00      3 P:y            16
                        (      54.789 eV)
   402     402      0.667      -0.193 au  C             1.00      1 P:z            16
                        (      -5.239 eV)
   403     403       --         0.169 au  C             1.00      2 P:z            16
                        (       4.589 eV)
   404     404       --         2.013 au  C             1.00      3 P:z            16
                        (      54.789 eV)
   405     405       --         1.243 au  C             1.00      1 D:z2           16
                        (      33.824 eV)
   406     406       --         1.243 au  C             1.00      1 D:x2-y2        16
                        (      33.824 eV)
   407     407       --         1.243 au  C             1.00      1 D:xy           16
                        (      33.824 eV)
   408     408       --         1.243 au  C             1.00      1 D:xz           16
                        (      33.824 eV)
   409     409       --         1.243 au  C             1.00      1 D:yz           16
                        (      33.824 eV)
   410     410       --         4.016 au  C             1.00      1 F:z3           16
                        (     109.271 eV)
   411     411       --         4.016 au  C             1.00      1 F:z            16
                        (     109.271 eV)
   412     412       --         4.016 au  C             1.00      1 F:xyz          16
                        (     109.271 eV)
   413     413       --         4.016 au  C             1.00      1 F:z2x          16
                        (     109.271 eV)
   414     414       --         4.016 au  C             1.00      1 F:z2y          16
                        (     109.271 eV)
   415     415       --         4.016 au  C             1.00      1 F:x            16
                        (     109.271 eV)
   416     416       --         4.016 au  C             1.00      1 F:y            16
                        (     109.271 eV)
   417     417      2.000     -10.066 au  C             1.00      1 S              17
                        (    -273.921 eV)
   418     418      2.000      -0.501 au  C             1.00      2 S              17
                        (     -13.620 eV)
   419     419       --         0.373 au  C             1.00      3 S              17
                        (      10.158 eV)
   420     420       --         5.405 au  C             1.00      4 S              17
                        (     147.073 eV)
   421     421       --        49.848 au  C             1.00      5 S              17
                        (    1356.422 eV)
   422     422      0.667      -0.193 au  C             1.00      1 P:x            17
                        (      -5.239 eV)
   423     423       --         0.169 au  C             1.00      2 P:x            17
                        (       4.589 eV)
   424     424       --         2.013 au  C             1.00      3 P:x            17
                        (      54.789 eV)
   425     425      0.667      -0.193 au  C             1.00      1 P:y            17
                        (      -5.239 eV)
   426     426       --         0.169 au  C             1.00      2 P:y            17
                        (       4.589 eV)
   427     427       --         2.013 au  C             1.00      3 P:y            17
                        (      54.789 eV)
   428     428      0.667      -0.193 au  C             1.00      1 P:z            17
                        (      -5.239 eV)
   429     429       --         0.169 au  C             1.00      2 P:z            17
                        (       4.589 eV)
   430     430       --         2.013 au  C             1.00      3 P:z            17
                        (      54.789 eV)
   431     431       --         1.243 au  C             1.00      1 D:z2           17
                        (      33.824 eV)
   432     432       --         1.243 au  C             1.00      1 D:x2-y2        17
                        (      33.824 eV)
   433     433       --         1.243 au  C             1.00      1 D:xy           17
                        (      33.824 eV)
   434     434       --         1.243 au  C             1.00      1 D:xz           17
                        (      33.824 eV)
   435     435       --         1.243 au  C             1.00      1 D:yz           17
                        (      33.824 eV)
   436     436       --         4.016 au  C             1.00      1 F:z3           17
                        (     109.271 eV)
   437     437       --         4.016 au  C             1.00      1 F:z            17
[...]
     450       84.9902         0.000       
     449       84.8287         0.000       
     448       84.5803         0.000       
     447       84.4179         0.000       
     446       83.9126         0.000       
     445       83.6774         0.000       
     444       83.3953         0.000       
     443       83.0504         0.000       
     442       82.9418         0.000       
     441       82.7966         0.000       
     440       82.5077         0.000       
     439       82.1022         0.000       
     438       81.6641         0.000       
     437       81.5221         0.000       
     436       80.9747         0.000       
     435       80.8115         0.000       
     434       80.6218         0.000       
     433       80.5029         0.000       
     432       80.3576         0.000       
     431       80.0922         0.000       
     430       80.0002         0.000       
     429       79.6611         0.000       
     428       79.5745         0.000       
     427       79.0808         0.000       
     426       78.7695         0.000       
     425       78.4929         0.000       
     424       77.8622         0.000       
     423       77.6622         0.000       
     422       77.5412         0.000       
     421       77.3740         0.000       
     420       77.3533         0.000       
     419       76.7588         0.000       
     418       76.5667         0.000       
     417       76.3185         0.000       
     416       76.2049         0.000       
     415       75.8954         0.000       
     414       75.6581         0.000       
     413       75.5329         0.000       
     412       75.2378         0.000       
     411       75.0903         0.000       
     410       74.7259         0.000       
     409       74.3401         0.000       
     408       74.1999         0.000       
     407       73.9470         0.000       
     406       73.7877         0.000       
     405       73.4421         0.000       
     404       73.3951         0.000       
     403       72.9089         0.000       
     402       72.7103         0.000       
     401       72.2189         0.000       
     400       71.6514         0.000       
     399       71.1077         0.000       
     398       70.7314         0.000       
     397       70.2785         0.000       
     396       70.1633         0.000       
     395       68.9169         0.000       
     394       68.5801         0.000       
     393       68.3220         0.000       
     392       68.0097         0.000       
     391       67.8289         0.000       
     390       67.5774         0.000       
     389       67.0695         0.000       
     388       66.7929         0.000       
     387       66.4725         0.000       
     386       66.4219         0.000       
     385       65.4230         0.000       
     384       65.3203         0.000       
     383       65.1379         0.000       
     382       64.9722         0.000       
     381       64.6594         0.000       
     380       64.5232         0.000       
     379       64.3373         0.000       
     378       64.2119         0.000       
     377       64.0329         0.000       
     376       63.5948         0.000       
     375       63.5600         0.000       
     374       63.3164         0.000       
     373       62.8895         0.000       
     372       62.6583         0.000       
     371       62.4649         0.000       
     370       62.1708         0.000       
     369       61.9871         0.000       
     368       61.3811         0.000       
     367       60.7149         0.000       
     366       60.6205         0.000       
     365       60.3428         0.000       
     364       59.5048         0.000       
     363       59.3025         0.000       
     362       58.8050         0.000       
     361       58.0066         0.000       
     360       57.6195         0.000       
     359       57.5833         0.000       
     358       57.4584         0.000       
     357       57.2052         0.000       
     356       56.6352         0.000       
     355       56.3293         0.000       
     354       56.2362         0.000       
     353       55.8497         0.000       
     352       55.3862         0.000       
     351       54.8438         0.000       
     350       54.6562         0.000       
     349       54.6042         0.000       
     348       54.4748         0.000       
     347       54.0321         0.000       
     346       53.7926         0.000       
     345       53.4092         0.000       
     344       53.2059         0.000       
     343       52.8636         0.000       
     342       52.6268         0.000       
     341       52.3382         0.000       
     340       52.0872         0.000       
     339       51.8098         0.000       
     338       51.4663         0.000       
     337       51.3473         0.000       
     336       51.1650         0.000       
     335       50.9678         0.000       
     334       50.9529         0.000       
     333       50.7349         0.000       
     332       50.5377         0.000       
     331       50.3885         0.000       
     330       50.0126         0.000       
     329       49.6797         0.000       
     328       49.5062         0.000       
     327       49.3011         0.000       
     326       49.2521         0.000       
     325       48.9368         0.000       
     324       48.4570         0.000       
     323       48.0903         0.000       
     322       47.8198         0.000       
     321       47.4099         0.000       
     320       47.2889         0.000       
     319       47.0419         0.000       
     318       46.8393         0.000       
     317       46.4660         0.000       
     316       45.9301         0.000       
     315       45.5193         0.000       
     314       45.4136         0.000       
     313       45.0963         0.000       
     312       44.8335         0.000       
     311       44.3694         0.000       
     310       43.8091         0.000       
     309       43.7515         0.000       
     308       43.4351         0.000       
     307       43.2958         0.000       
     306       42.7102         0.000       
     305       42.5890         0.000       
     304       41.8941         0.000       
     303       41.7191         0.000       
     302       41.5627         0.000       
     301       41.1614         0.000       
     300       40.8575         0.000       
     299       40.5238         0.000       
     298       40.4980         0.000       
     297       40.2720         0.000       
     296       40.0299         0.000       
     295       39.9674         0.000       
     294       39.6492         0.000       
     293       39.5797         0.000       
     292       39.3238         0.000       
     291       39.0616         0.000       
     290       38.8957         0.000       
     289       38.7337         0.000       
     288       38.5770         0.000       
     287       38.5441         0.000       
     286       38.3787         0.000       
     285       38.1744         0.000       
     284       37.8856         0.000       
     283       37.3680         0.000       
     282       37.1742         0.000       
     281       37.0261         0.000       
     280       36.9583         0.000       
     279       36.8015         0.000       
     278       36.4950         0.000       
     277       36.2608         0.000       
     276       36.0666         0.000       
     275       35.9535         0.000       
     274       35.6909         0.000       
     273       35.4439         0.000       
     272       35.2901         0.000       
     271       35.1565         0.000       
     270       34.9826         0.000       
     269       34.7218         0.000       
     268       34.4119         0.000       
     267       34.2743         0.000       
     266       33.9564         0.000       
     265       33.8496         0.000       
     264       33.5471         0.000       
     263       32.8722         0.000       
     262       32.6802         0.000       
     261       32.2466         0.000       
     260       32.1412         0.000       
     259       31.5424         0.000       
     258       31.2311         0.000       
     257       31.1060         0.000       
     256       30.9827         0.000       
     255       30.6091         0.000       
     254       30.5740         0.000       
     253       30.1545         0.000       
     252       29.9531         0.000       
     251       29.8597         0.000       
     250       29.5265         0.000       
     249       29.4945         0.000       
     248       29.3273         0.000       
     247       29.2063         0.000       
     246       29.0078         0.000       
     245       28.9455         0.000       
     244       28.6553         0.000       
     243       28.0706         0.000       
     242       28.0198         0.000       
     241       27.8261         0.000       
     240       27.4824         0.000       
     239       27.3967         0.000       
     238       27.3123         0.000       
     237       27.0313         0.000       
     236       26.8603         0.000       
     235       26.5811         0.000       
     234       26.4766         0.000       
     233       26.2317         0.000       
     232       26.1607         0.000       
     231       25.7133         0.000       
     230       25.4754         0.000       
     229       25.2784         0.000       
     228       25.0965         0.000       
     227       25.0030         0.000       
     226       24.5287         0.000       
     225       24.2174         0.000       
     224       24.0474         0.000       
     223       23.7835         0.000       
     222       23.4763         0.000       
     221       23.2762         0.000       
     220       22.8923         0.000       
     219       22.7127         0.000       
     218       22.6298         0.000       
     217       22.4438         0.000       
     216       22.2202         0.000       
     215       22.0715         0.000       
     214       21.9990         0.000       
     213       21.5024         0.000       
     212       21.4050         0.000       
     211       21.2434         0.000       
     210       20.9977         0.000       
     209       20.7800         0.000       
     208       20.4902         0.000       
     207       20.1747         0.000       
     206       20.0385         0.000       
     205       19.6124         0.000       
     204       19.3709         0.000       
     203       19.3385         0.000       
     202       18.8842         0.000       
     201       18.7531         0.000       
     200       18.4621         0.000       
     199       18.2979         0.000       
     198       18.1203         0.000       
     197       18.0869         0.000       
     196       17.8684         0.000       
     195       17.3170         0.000       
     194       17.2616         0.000       
     193       16.7384         0.000       
     192       16.3556         0.000       
     191       16.0810         0.000       
     190       15.7830         0.000       
     189       15.7088         0.000       
     188       15.6807         0.000       
     187       15.1660         0.000       
     186       14.9617         0.000       
     185       14.8940         0.000       
     184       14.6886         0.000       
     183       14.4596         0.000       
     182       14.3577         0.000       
     181       14.1934         0.000       
     180       13.7688         0.000       
     179       13.5178         0.000       
     178       13.4950         0.000       
     177       13.3783         0.000       
     176       13.2713         0.000       
     175       13.0541         0.000       
     174       12.8975         0.000       
     173       12.7261         0.000       
     172       12.2715         0.000       
     171       12.2212         0.000       
     170       11.8316         0.000       
     169       11.7521         0.000       
     168       11.6543         0.000       
     167       11.4110         0.000       
     166       11.2907         0.000       
     165       11.2198         0.000       
     164       10.9256         0.000       
     163       10.8704         0.000       
     162       10.7028         0.000       
     161       10.5318         0.000       
     160       10.3902         0.000       
     159       10.2930         0.000       
     158       10.2607         0.000       
     157        9.9617         0.000       
     156        9.7339         0.000       
     155        9.6462         0.000       
     154        9.5636         0.000       
     153        9.4604         0.000       
     152        9.3332         0.000       
     151        9.2735         0.000       
     150        9.1660         0.000       
     149        8.9982         0.000       
     148        8.7891         0.000       
     147        8.6980         0.000       
     146        8.5867         0.000       
     145        8.4454         0.000       
     144        8.2810         0.000       
     143        8.2388         0.000       
     142        8.2127         0.000       
     141        8.1126         0.000       
     140        7.9786         0.000       
     139        7.8410         0.000       
     138        7.7698         0.000       
     137        7.5209         0.000       
     136        7.4158         0.000       
     135        7.1724         0.000       
     134        7.0547         0.000       
     133        6.9694         0.000       
     132        6.7252         0.000       
     131        6.6411         0.000       
     130        6.4751         0.000       
     129        6.2999         0.000       
     128        6.1476         0.000       
     127        6.0516         0.000       
     126        5.8366         0.000       
     125        5.7365         0.000       
     124        5.5984         0.000       
     123        5.4882         0.000       
     122        5.3256         0.000       
     121        5.2846         0.000       
     120        5.0582         0.000       
     119        5.0134         0.000       
     118        4.8884         0.000       
     117        4.7711         0.000       
     116        4.6891         0.000       
     115        4.6618         0.000       
     114        4.5826         0.000       
     113        4.3637         0.000       
     112        4.1352         0.000       
     111        4.0859         0.000       
     110        3.7331         0.000       
     109        3.6672         0.000       
     108        3.4065         0.000       
     107        3.3893         0.000       
     106        2.9733         0.000       
     105        2.7132         0.000       
     104        2.5246         0.000       
     103        2.3019         0.000       
     102        2.2333         0.000       
     101        2.1946         0.000       
     100        1.9588         0.000       
      99        1.8899         0.000       
      98        1.8129         0.000       
      97        1.5821         0.000       
      96        1.4947         0.000       
      95        1.0967         0.000       
      94        1.0700         0.000       
      93        0.9995         0.000       
      92        0.8384         0.000       
      91        0.7057         0.000       
      90        0.4669         0.000       
      89        0.3476         0.000       
      88        0.1662         0.000       
      87       -0.0632         0.000       
      86       -0.1569         0.000       
      85       -0.5269         0.000       
      84       -0.6240         0.000       
      83       -0.9159         0.000       
      82       -1.2925         0.000       
      81       -1.5484         0.000       
      80       -1.6971         0.000       
      79       -3.4718         0.000 < LUMO
      78       -5.3021         2.000 < HOMO
      77       -5.5572         2.000       
      76       -5.8673         2.000       
      75       -6.0628         2.000       
      74       -6.2565         2.000       
      73       -6.4366         2.000       
      72       -6.6199         2.000       
      71       -6.7016         2.000       
      70       -7.5950         2.000       
      69       -8.3813         2.000       
      68       -8.4373         2.000       
      67       -8.6250         2.000       
      66       -8.7733         2.000       
      65       -9.0702         2.000       
      64       -9.0968         2.000       
      63       -9.2098         2.000       
      62       -9.3122         2.000       
      61       -9.4806         2.000       
      60       -9.6421         2.000       
      59       -9.7253         2.000       
      58      -10.0534         2.000       
      57      -10.3930         2.000       
      56      -10.4108         2.000       
      55      -10.5243         2.000       
      54      -10.5765         2.000       
      53      -10.8173         2.000       
      52      -11.0688         2.000       
      51      -11.1604         2.000       
      50      -11.2474         2.000       
      49      -11.2987         2.000       
      48      -11.5431         2.000       
      47      -11.6639         2.000       
      46      -12.0612         2.000       
      45      -12.8058         2.000       
      44      -12.8695         2.000       
      43      -13.4472         2.000       
      42      -13.9743         2.000       
      41      -14.2739         2.000       
      40      -14.6533         2.000       
      39      -14.9493         2.000       
      38      -15.1426         2.000       
      37      -15.2958         2.000       
      36      -16.0958         2.000       
      35      -17.2492         2.000       
      34      -17.6458         2.000       
      33      -18.5339         2.000       
      32      -18.5952         2.000       
      31      -18.7575         2.000       
      30      -18.9436         2.000       
      29      -20.2844         2.000       
      28      -21.3877         2.000       
      27      -21.8372         2.000       
      26      -22.5985         2.000       
      25      -23.1973         2.000       
      24      -25.2448         2.000       
      23      -25.9145         2.000       
      22     -270.3129         2.000       
      21     -270.3193         2.000       
      20     -270.3251         2.000       
      19     -270.3682         2.000       
      18     -270.3734         2.000       
      17     -270.4683         2.000       
      16     -270.4838         2.000       
      15     -270.4843         2.000       
      14     -270.5025         2.000       
      13     -270.5499         2.000       
      12     -270.6813         2.000       
      11     -270.7717         2.000       
      10     -270.8295         2.000       
       9     -270.9208         2.000       
       8     -271.0666         2.000       
       7     -271.4517         2.000       
       6     -272.3159         2.000       
       5     -272.8268         2.000       
       4     -382.0449         2.000       
       3     -382.5511         2.000       
       2     -510.0102         2.000       
       1     -510.6116         2.000       

AMS application finished. Exiting.
NORMAL TERMINATION
     Total cpu time:     298.68
  Total system time:       0.78
 Total elapsed time:     301.25
NORMAL TERMINATION
