srun: Job 662084 step creation temporarily disabled, retrying (Requested nodes are busy)
srun: Job 662084 step creation still disabled, retrying (Requested nodes are busy)
srun: Job 662084 step creation still disabled, retrying (Requested nodes are busy)
srun: Job 662084 step creation still disabled, retrying (Requested nodes are busy)
srun: Step created for StepId=662084.62

 *******************************************************************************
 *                                                                             *
 *  --------------------------------                                           *
 *   Amsterdam Modeling Suite (AMS)              2026.103                      *
 *  --------------------------------                                           *
 *                                               r260501 2026-05-01 873454b5   *
 *                                                                             *
 *                                                                             *
 *                              =================                              *
 *                              |               |                              *
 *                              |     A M S     |                              *
 *                              |               |                              *
 *                              =================                              *
 *                                                                             *
 *                                                                             *
 *   Online information and documentation:  https://www.scm.com/support/       *
 *   E-mail:  support@scm.com   info@scm.com                                   *
 *                                                                             *
 *   Scientific publications using AMS results must be properly referenced     *
 *   See the User Manuals (or the web site) for recommended citations          *
 *   The terms and conditions of the End User License Agreement apply to       *
 *   the use of AMS, https://www.scm.com/license-terms/                        *
 *                                                                             *
 **********************  x86_64_linux_intel / intelmpi  ************************
 
 Licensed to: Jong-June Jeon / University of Seoul 2026-06-02 13:44:15
 SCM User ID: u30731
  
 AMS 2026.103  RunTime: Jun03-2026 08:10:29  ShM Nodes: 1  Procs: 1

 AMS jobname: c5_fragB_opt
 AMS jobid  : 283104118

 Start   directory: /gpfs/home1/yeseo1ee/projects/eda-asm-prediction/ADF_800/adf_outputs/batch_000/dipolar_000761/
 Results directory: /gpfs/home1/yeseo1ee/projects/eda-asm-prediction/ADF_800/adf_outputs/batch_000/dipolar_000761/c5_fragB_opt.results/
 Scratch directory: /tmp/amstmp_c5_fragB_opt_kid0.283104118/

 RNG seed: 886297027 509136701 -1032833321 -68307404 1660520222 224685585 -1622873665 -1051989248



                      ************************************************************************
                      *  ADF 2026.103  RunTime: Jun03-2026 08:10:30  ShM Nodes: 1  Procs: 1  *
                      ************************************************************************
  

       ***************************
       *  GEOMETRY OPTIMIZATION  *
       ***************************

Optimization Method                    Quasi Newton
Optimization Coordinates               Delocalized Coordinates
Optimize lattice                       F
 
 ------------------------------------------------------
 Convergence criteria (Hartree,Angstrom)
 ------------------------------------------------------
 Maximum gradient               0.000100000000
 Maximum rms gradient           0.000066666667
 Maximum step allowed           0.010000000000
 Maximum rms step allowed       0.006666666667
 Maximum energy change allowe   0.000210000000
 Maximum stress energy allowe   0.000500000000
 
Initial model Hessian                  Automatic Hessian
 
------------------------------------
Quasi-Newton Optimizer Parameters
------------------------------------
Hessian Update Method                  BFGS
Maximum number of steps                  200
First GDIIS cycle                          0
Maximum GDIIS vectors                      0
Trust radius (bohr)                        0.200000
Trust radius varies                        T
Constraints converged at all steps         T
Use projector                              T
 
 Rigid motions settings for: old optimizer
 Atomic rotations (x,y,z):     T T T
 Atomic translations (x,y,z):  T T T
 Tolerance:                  1.000000000000000E-006

--------
Geometry
--------
Formula: C8H11BrO
Atoms
  Index Symbol   x (angstrom)   y (angstrom)   z (angstrom)
      1      C    -2.17966000    -2.33744000     0.39969000
      2      O    -1.23619000    -1.34346000     0.80183000
      3      C    -1.08428000    -0.26397000     0.02478000
      4      C    -2.18303000     0.37803000    -0.81069000
      5      C    -2.99063000     1.23139000     0.22439000
      6      C    -2.00582000     2.38621000     0.57166000
      7      C    -0.73340000     2.02951000    -0.26345000
      8      C    -1.40509000     1.48557000    -1.54173000
      9      C    -0.18077000     0.75043000     0.35192000
     10     Br     0.62086000     0.84709000     2.08330000
     11      H    -3.20297000    -1.93277000     0.39125000
     12      H    -1.93452000    -2.73729000    -0.59549000
     13      H    -2.11187000    -3.14226000     1.14206000
     14      H    -2.78092000    -0.30691000    -1.42255000
     15      H    -3.28055000     0.63630000     1.10195000
     16      H    -3.90943000     1.60805000    -0.24781000
     17      H    -2.39691000     3.36039000     0.24353000
     18      H    -1.78408000     2.45453000     1.64517000
     19      H    -0.01080000     2.84661000    -0.37826000
     20      H    -2.08116000     2.22699000    -1.99137000
     21      H    -0.71105000     1.12774000    -2.30596000

Total System Charge              0.00000


----------------
ADF Engine Input
----------------
 
   Basis
     Type TZ2P
     Core None
   End
   XC
     GGA BLYP
     Dispersion GRIMME3 BJDAMP
   End
   Symmetry NOSYM
   NumericalQuality Normal
   Unrestricted No
   SCF
     Iterations 200
     Converge 1.0e-6
   End
   Save TAPE21
 

 Title: *** (NO TITLE) ***

 Using automatic Hessian for delocalized coordinates.
 *** GO1_GOStep1 ***

 Energy gradients wrt nuclear displacements
 ==========================================

     Atom      Cartesian (a.u./angstrom)
                 X         Y         Z
 ----------------------------------------
     1 C     0.011056  0.015818  0.005709
     2 O    -0.007493  0.021181 -0.016855
     3 C    -0.036969 -0.065122 -0.022557
     4 C    -0.002866  0.019652  0.014797
     5 C     0.016851 -0.000171 -0.007149
     6 C     0.005038 -0.016686 -0.010802
     7 C    -0.015494 -0.005782 -0.001310
     8 C    -0.001228 -0.006205  0.014636
     9 C     0.051952  0.030011  0.018428
    10 Br   -0.017016  0.004784  0.000991
    11 H    -0.001886  0.001647  0.000079
    12 H     0.000684 -0.000268 -0.000935
    13 H     0.000097 -0.004167  0.002938
    14 H     0.000331 -0.004955 -0.000619
    15 H    -0.001113 -0.003353  0.003368
    16 H    -0.002242  0.000789 -0.002094
    17 H     0.001155  0.002772 -0.002315
    18 H     0.000639  0.000639  0.005615
    19 H     0.004594  0.002740  0.000259
    20 H    -0.002148  0.002170 -0.000032
    21 H    -0.003944  0.004503 -0.002155
 ----------------------------------------
 
----------------------------------------------------------------------
Geometry Convergence after Step   1       (Hartree/Angstrom,Angstrom)
----------------------------------------------------------------------
current energy                               -4.19962790 Hartree
energy change                      -4.19962790     0.00021000    F
constrained gradient max            0.06511463     0.00010000    F
constrained gradient rms            0.01473479     0.00006667    F
gradient max                        0.06511463
gradient rms                        0.01473479
cart. step max                      0.08431791     0.01000000    F
cart. step rms                      0.02660079     0.00666667    F
 

--------
Geometry
--------
Formula: C8H11BrO
Atoms
  Index Symbol   x (angstrom)   y (angstrom)   z (angstrom)
      1      C    -2.16496465    -2.36805301     0.38128958
      2      O    -1.24493938    -1.35907877     0.82828545
      3      C    -1.10145602    -0.25088978     0.06482196
      4      C    -2.19789600     0.38370325    -0.78594242
      5      C    -3.01337653     1.26638281     0.23045917
      6      C    -2.01986863     2.42382630     0.56969116
      7      C    -0.74186284     2.03392696    -0.25480872
      8      C    -1.40276050     1.47140054    -1.53267886
      9      C    -0.20377262     0.74854821     0.36447934
     10     Br     0.70517791     0.80562045     2.04724370
     11      H    -3.19552870    -1.98609341     0.35780616
     12      H    -1.89061917    -2.74247740    -0.61561186
     13      H    -2.09685922    -3.18413223     1.10743845
     14      H    -2.79289768    -0.30356858    -1.39509825
     15      H    -3.31482114     0.69066366     1.11402298
     16      H    -3.92428669     1.64183938    -0.25441345
     17      H    -2.40221728     3.39448970     0.22573045
     18      H    -1.80578457     2.50638700     1.64091179
     19      H    -0.00971941     2.83666517    -0.38573226
     20      H    -2.06461449     2.20830456    -2.00671989
     21      H    -0.69920237     1.08727517    -2.27695448

Total System Charge              0.00000

 *** GO1_GOStep2 ***

 Energy gradients wrt nuclear displacements
 ==========================================

     Atom      Cartesian (a.u./angstrom)
                 X         Y         Z
 ----------------------------------------
     1 C     0.005496  0.007836  0.005648
     2 O    -0.004866  0.009245 -0.005340
     3 C    -0.015846 -0.032369 -0.016970
     4 C    -0.001332  0.014742  0.009635
     5 C     0.010143 -0.000394 -0.003507
     6 C     0.002061 -0.007048 -0.003762
     7 C    -0.013569 -0.003444 -0.000137
     8 C     0.000763 -0.005562  0.011221
     9 C     0.033957  0.013870  0.003131
    10 Br   -0.012256  0.002284  0.003120
    11 H    -0.001284  0.000204 -0.000262
    12 H    -0.000117 -0.000644 -0.000755
    13 H    -0.000675 -0.002469  0.000736
    14 H     0.001489 -0.003168 -0.000954
    15 H    -0.000989 -0.001502  0.001622
    16 H    -0.001468  0.000147 -0.000984
    17 H     0.000470  0.001812 -0.001005
    18 H    -0.000721  0.001338  0.002247
    19 H     0.002354  0.000811 -0.001184
    20 H    -0.000875  0.001155  0.000664
    21 H    -0.002736  0.003154 -0.003164
 ----------------------------------------

 dE(predicted):    -0.42618E-02, dE(actual):    -0.43359E-02, Trust radius:    0.400000, all in a.u.
 
----------------------------------------------------------------------
Geometry Convergence after Step   2       (Hartree/Angstrom,Angstrom)
----------------------------------------------------------------------
current energy                               -4.20396377 Hartree
energy change                      -0.00433587     0.00021000    F
constrained gradient max            0.03398625     0.00010000    F
constrained gradient rms            0.00826000     0.00006667    F
gradient max                        0.03398625
gradient rms                        0.00826000
cart. step max                      0.13609552     0.01000000    F
cart. step rms                      0.05115265     0.00666667    F
 

--------
Geometry
--------
Formula: C8H11BrO
Atoms
  Index Symbol   x (angstrom)   y (angstrom)   z (angstrom)
      1      C    -2.12769608    -2.40529505     0.33131491
      2      O    -1.28231444    -1.37341460     0.88367235
      3      C    -1.15929795    -0.22864513     0.15385145
      4      C    -2.24201524     0.38735890    -0.73574480
      5      C    -3.05469894     1.32840207     0.24298851
      6      C    -2.02973167     2.47434728     0.55978994
      7      C    -0.74994686     2.03191121    -0.24537994
      8      C    -1.40962531     1.43248161    -1.51274996
      9      C    -0.26034798     0.74939349     0.41591264
     10     Br     0.84127343     0.76741325     1.98417017
     11      H    -3.17023946    -2.06857877     0.25842579
     12      H    -1.77048563    -2.72025332    -0.65885252
     13      H    -2.06174842    -3.24269609     1.02932164
     14      H    -2.84339964    -0.30437275    -1.33019068
     15      H    -3.37569518     0.78954842     1.13971896
     16      H    -3.94942031     1.71151289    -0.26170820
     17      H    -2.38865947     3.44258496     0.19062254
     18      H    -1.81690717     2.57485548     1.62755679
     19      H     0.00427384     2.80655689    -0.39873672
     20      H    -2.04201216     2.16005274    -2.03640046
     21      H    -0.69357536     0.99157652    -2.21336241

Total System Charge              0.00000

 *** GO1_GOStep3 ***

 Energy gradients wrt nuclear displacements
 ==========================================

     Atom      Cartesian (a.u./angstrom)
                 X         Y         Z
 ----------------------------------------
     1 C     0.000208  0.002096  0.000934
     2 O     0.000480  0.000751  0.001997
     3 C    -0.000560  0.000164 -0.005055
     4 C    -0.001990  0.002556 -0.000044
     5 C     0.000944 -0.000626  0.001108
     6 C     0.001413 -0.002853  0.001834
     7 C    -0.003019  0.003092 -0.001845
     8 C     0.000453 -0.002848  0.007413
     9 C     0.006340 -0.002381 -0.005905
    10 Br   -0.004879 -0.000171  0.005908
    11 H    -0.000125  0.000205 -0.000275
    12 H    -0.000302 -0.000436 -0.000200
    13 H     0.000173  0.000456 -0.000186
    14 H     0.001178 -0.001019 -0.001231
    15 H    -0.000012  0.000079 -0.000229
    16 H    -0.000464 -0.000783 -0.000017
    17 H     0.000978 -0.000058 -0.000615
    18 H    -0.000471  0.000821 -0.000444
    19 H     0.000941 -0.000661 -0.002005
    20 H    -0.000193  0.000200  0.000760
    21 H    -0.001091  0.001417 -0.001905
 ----------------------------------------

 dE(predicted):    -0.36924E-02, dE(actual):    -0.40654E-02, Trust radius:    0.800000, all in a.u.
 
----------------------------------------------------------------------
Geometry Convergence after Step   3       (Hartree/Angstrom,Angstrom)
----------------------------------------------------------------------
current energy                               -4.20802918 Hartree
energy change                      -0.00406541     0.00021000    F
constrained gradient max            0.00738220     0.00010000    F
constrained gradient rms            0.00221077     0.00006667    F
gradient max                        0.00738220
gradient rms                        0.00221077
cart. step max                      0.15516356     0.01000000    F
cart. step rms                      0.04713756     0.00666667    F
 

--------
Geometry
--------
Formula: C8H11BrO
Atoms
  Index Symbol   x (angstrom)   y (angstrom)   z (angstrom)
      1      C    -2.09628651    -2.44202501     0.30354342
      2      O    -1.33756736    -1.38106187     0.92856099
      3      C    -1.21508740    -0.22074881     0.22037285
      4      C    -2.27725391     0.39827131    -0.69657100
      5      C    -3.09056104     1.38436454     0.23997977
      6      C    -2.04356217     2.51192270     0.55582551
      7      C    -0.76234374     2.02616548    -0.22520874
      8      C    -1.41207183     1.40768833    -1.49304167
      9      C    -0.29977105     0.74506075     0.45454704
     10     Br     0.99643699     0.73407486     1.86467186
     11      H    -3.14663490    -2.15330115     0.16940268
     12      H    -1.65779185    -2.71487872    -0.66575535
     13      H    -2.03351273    -3.28926074     0.98991357
     14      H    -2.88926753    -0.29196627    -1.27996525
     15      H    -3.44306614     0.87347245     1.14085426
     16      H    -3.96216815     1.78205185    -0.29215968
     17      H    -2.37951237     3.48250524     0.17240505
     18      H    -1.84011712     2.61597709     1.62529428
     19      H     0.00792735     2.78355030    -0.37917261
     20      H    -2.01615068     2.12878742    -2.05742204
     21      H    -0.68390787     0.92409027    -2.15185494

Total System Charge              0.00000

 *** GO1_GOStep4 ***

 Energy gradients wrt nuclear displacements
 ==========================================

     Atom      Cartesian (a.u./angstrom)
                 X         Y         Z
 ----------------------------------------
     1 C    -0.001159 -0.000357 -0.000004
     2 O     0.000400 -0.001270  0.001759
     3 C    -0.002449  0.001977 -0.000359
     4 C     0.002349 -0.003321 -0.002831
     5 C    -0.002088  0.000643  0.000632
     6 C     0.000294  0.001052  0.002366
     7 C    -0.000621  0.003444  0.001196
     8 C     0.000474 -0.001248  0.003397
     9 C    -0.000308 -0.002230 -0.007368
    10 Br    0.001682  0.000519  0.002484
    11 H     0.000337  0.000225  0.000120
    12 H     0.000102  0.000140  0.000258
    13 H     0.000144  0.000486  0.000057
    14 H     0.000585  0.000905 -0.000668
    15 H     0.000653  0.000059 -0.000190
    16 H    -0.000064 -0.000166  0.000426
    17 H    -0.000130 -0.000473 -0.000256
    18 H    -0.000098 -0.000008 -0.000176
    19 H    -0.000070 -0.000758 -0.001019
    20 H     0.000040  0.000372  0.000438
    21 H    -0.000071  0.000009 -0.000261
 ----------------------------------------

 dE(predicted):    -0.13046E-02, dE(actual):    -0.14788E-02, Trust radius:    0.800000, all in a.u.
 
----------------------------------------------------------------------
Geometry Convergence after Step   4       (Hartree/Angstrom,Angstrom)
----------------------------------------------------------------------
current energy                               -4.20950795 Hartree
energy change                      -0.00147877     0.00021000    F
constrained gradient max            0.00728256     0.00010000    F
constrained gradient rms            0.00156099     0.00006667    F
gradient max                        0.00728256
gradient rms                        0.00156099
cart. step max                      0.09549241     0.01000000    F
cart. step rms                      0.03771828     0.00666667    F
 

--------
Geometry
--------
Formula: C8H11BrO
Atoms
  Index Symbol   x (angstrom)   y (angstrom)   z (angstrom)
      1      C    -2.05502872    -2.47143413     0.26169826
      2      O    -1.37046356    -1.39470352     0.94526244
      3      C    -1.25239545    -0.21929677     0.26178861
      4      C    -2.31355371     0.40804468    -0.65335448
      5      C    -3.10420729     1.43499308     0.25773309
      6      C    -2.03397131     2.54916867     0.53855167
      7      C    -0.76419770     2.01056730    -0.22583300
      8      C    -1.42910697     1.37723317    -1.48136223
      9      C    -0.33559700     0.74211653     0.49831908
     10     Br     0.99368737     0.72114570     1.87425269
     11      H    -3.10994486    -2.22450503     0.08620925
     12      H    -1.56229943    -2.70062190    -0.69278201
     13      H    -1.98673428    -3.33303694     0.92957693
     14      H    -2.94471397    -0.28247096    -1.21573219
     15      H    -3.46728124     0.95732406     1.17267634
     16      H    -3.96684856     1.83752527    -0.28512116
     17      H    -2.34898213     3.51650068     0.12988607
     18      H    -1.82574732     2.67704237     1.60459977
     19      H     0.02328551     2.74733204    -0.39214577
     20      H    -2.01737770     2.09445760    -2.06693446
     21      H    -0.71079167     0.85735810    -2.12306889

Total System Charge              0.00000

 *** GO1_GOStep5 ***

 Energy gradients wrt nuclear displacements
 ==========================================

     Atom      Cartesian (a.u./angstrom)
                 X         Y         Z
 ----------------------------------------
     1 C    -0.000657 -0.001229 -0.000187
     2 O     0.001119 -0.000673 -0.000484
     3 C     0.000154  0.002372 -0.001008
     4 C     0.001961 -0.002310  0.000637
     5 C    -0.003020  0.000917  0.000787
     6 C     0.000298  0.001423  0.000708
     7 C     0.001996 -0.000476 -0.001519
     8 C    -0.000619  0.000439  0.000040
     9 C    -0.003334 -0.000598 -0.001282
    10 Br    0.001820  0.000249  0.002842
    11 H     0.000149  0.000156  0.000010
    12 H     0.000061 -0.000108  0.000164
    13 H    -0.000014  0.000210 -0.000122
    14 H     0.000436  0.000919 -0.000410
    15 H     0.000238  0.000015  0.000060
    16 H     0.000245  0.000244  0.000480
    17 H    -0.000110 -0.000244 -0.000028
    18 H     0.000168 -0.000543 -0.000270
    19 H    -0.000559 -0.000394 -0.000478
    20 H    -0.000533 -0.000173 -0.000134
    21 H     0.000204 -0.000196  0.000195
 ----------------------------------------

 dE(predicted):    -0.23569E-03, dE(actual):    -0.19778E-03, Trust radius:    0.800000, all in a.u.
 
----------------------------------------------------------------------
Geometry Convergence after Step   5       (Hartree/Angstrom,Angstrom)
----------------------------------------------------------------------
current energy                               -4.20970573 Hartree
energy change                      -0.00019778     0.00021000    T
constrained gradient max            0.00334204     0.00010000    F
constrained gradient rms            0.00104176     0.00006667    F
gradient max                        0.00334204
gradient rms                        0.00104176
cart. step max                      0.02085691     0.01000000    F
cart. step rms                      0.00554742     0.00666667    T
 

--------
Geometry
--------
Formula: C8H11BrO
Atoms
  Index Symbol   x (angstrom)   y (angstrom)   z (angstrom)
      1      C    -2.05247073    -2.47029903     0.26346599
      2      O    -1.38312564    -1.38961698     0.95443253
      3      C    -1.25903614    -0.21856121     0.26689008
      4      C    -2.31674871     0.40945721    -0.65281044
      5      C    -3.10634917     1.43719375     0.25507517
      6      C    -2.03578439     2.54917181     0.53876229
      7      C    -0.76538889     2.00945704    -0.22247465
      8      C    -1.42877714     1.37710129    -1.47996411
      9      C    -0.33642597     0.73961634     0.49849320
     10     Br     1.01098215     0.70803359     1.85339578
     11      H    -3.10832249    -2.23289696     0.08002934
     12      H    -1.55024925    -2.69253900    -0.68780971
     13      H    -1.98164232    -3.33320709     0.92977728
     14      H    -2.94927347    -0.28268512    -1.21245440
     15      H    -3.47417313     0.96055125     1.16883980
     16      H    -3.96646969     1.84019985    -0.29183666
     17      H    -2.34782501     3.51731893     0.12937675
     18      H    -1.83040760     2.67782953     1.60555153
     19      H     0.02324911     2.74636884    -0.38534427
     20      H    -2.01375559     2.09596769    -2.06671282
     21      H    -0.71027595     0.85627827    -2.12046267

Total System Charge              0.00000

 *** GO1_GOStep6 ***

 Energy gradients wrt nuclear displacements
 ==========================================

     Atom      Cartesian (a.u./angstrom)
                 X         Y         Z
 ----------------------------------------
     1 C    -0.000281  0.000085 -0.000100
     2 O     0.000794  0.000143 -0.000644
     3 C    -0.001700 -0.000338 -0.000072
     4 C     0.001667 -0.001817 -0.000163
     5 C    -0.001337  0.000562  0.000534
     6 C     0.000085  0.000973  0.000057
     7 C     0.000729 -0.000596 -0.000385
     8 C    -0.000425  0.000513 -0.000038
     9 C    -0.001098  0.000577 -0.000890
    10 Br    0.001155  0.000147  0.001721
    11 H     0.000084  0.000063 -0.000056
    12 H     0.000146 -0.000045  0.000010
    13 H     0.000081  0.000088  0.000066
    14 H    -0.000058  0.000389 -0.000188
    15 H     0.000181 -0.000084  0.000152
    16 H     0.000227 -0.000005  0.000088
    17 H    -0.000116 -0.000085  0.000005
    18 H     0.000189 -0.000312 -0.000047
    19 H    -0.000153 -0.000067 -0.000078
    20 H    -0.000242 -0.000095 -0.000115
    21 H     0.000071 -0.000095  0.000143
 ----------------------------------------

 dE(predicted):    -0.40442E-04, dE(actual):    -0.45912E-04, Trust radius:    0.800000, all in a.u.
 
----------------------------------------------------------------------
Geometry Convergence after Step   6       (Hartree/Angstrom,Angstrom)
----------------------------------------------------------------------
current energy                               -4.20975164 Hartree
energy change                      -0.00004591     0.00021000    T
constrained gradient max            0.00181187     0.00010000    F
constrained gradient rms            0.00059642     0.00006667    F
gradient max                        0.00181187
gradient rms                        0.00059642
cart. step max                      0.02519775     0.01000000    F
cart. step rms                      0.00672343     0.00666667    F
 

--------
Geometry
--------
Formula: C8H11BrO
Atoms
  Index Symbol   x (angstrom)   y (angstrom)   z (angstrom)
      1      C    -2.04852479    -2.47264477     0.26614459
      2      O    -1.39670207    -1.38489678     0.96282365
      3      C    -1.26517504    -0.21716143     0.27076750
      4      C    -2.32115628     0.41320786    -0.65141094
      5      C    -3.11070286     1.44226661     0.25159395
      6      C    -2.03789742     2.54982923     0.53978951
      7      C    -0.76665400     2.00894063    -0.21862293
      8      C    -1.42805104     1.37742449    -1.47822227
      9      C    -0.33810812     0.73680943     0.49843511
     10     Br     1.02986737     0.69164315     1.82819804
     11      H    -3.10593258    -2.24777758     0.07568594
     12      H    -1.53749891    -2.68741114    -0.68212737
     13      H    -1.97245562    -3.33607142     0.93137964
     14      H    -2.95408957    -0.28057457    -1.20899143
     15      H    -3.48583141     0.96721797     1.16318456
     16      H    -3.96691218     1.84763204    -0.30021438
     17      H    -2.34545948     3.51930952     0.12996969
     18      H    -1.83671952     2.67880144     1.60748674
     19      H     0.02335542     2.74544224    -0.37828202
     20      H    -2.00847838     2.09821398    -2.06691325
     21      H    -0.70914352     0.85453911    -2.11645433

Total System Charge              0.00000

 *** GO1_GOStep7 ***

 Energy gradients wrt nuclear displacements
 ==========================================

     Atom      Cartesian (a.u./angstrom)
                 X         Y         Z
 ----------------------------------------
     1 C    -0.000105  0.000197  0.000147
     2 O     0.000036  0.000487 -0.000388
     3 C    -0.000321 -0.000309  0.000244
     4 C     0.001115 -0.000666 -0.000221
     5 C    -0.000635  0.000443  0.000351
     6 C    -0.000038  0.000108 -0.000258
     7 C    -0.000252 -0.000245  0.000534
     8 C     0.000190  0.000045 -0.000218
     9 C    -0.000411  0.000217 -0.000745
    10 Br    0.000161  0.000087  0.000400
    11 H     0.000114 -0.000114 -0.000068
    12 H     0.000137  0.000019 -0.000064
    13 H     0.000024 -0.000079  0.000023
    14 H    -0.000277  0.000084  0.000096
    15 H     0.000047 -0.000068  0.000003
    16 H     0.000030 -0.000112 -0.000127
    17 H    -0.000103 -0.000063  0.000016
    18 H    -0.000003 -0.000011  0.000059
    19 H     0.000127  0.000094  0.000182
    20 H     0.000084 -0.000083  0.000005
    21 H     0.000078 -0.000029  0.000026
 ----------------------------------------

 dE(predicted):    -0.22593E-04, dE(actual):     0.91795E-05, Trust radius:    0.020000, all in a.u.
 
----------------------------------------------------------------------
Geometry Convergence after Step   7       (Hartree/Angstrom,Angstrom)
----------------------------------------------------------------------
current energy                               -4.20974246 Hartree
energy change                       0.00000918     0.00021000    T
constrained gradient max            0.00108889     0.00010000    F
constrained gradient rms            0.00027889     0.00006667    F
gradient max                        0.00108889
gradient rms                        0.00027889
cart. step max                      0.00283269     0.01000000    T
cart. step rms                      0.00087501     0.00666667    T
 

--------
Geometry
--------
Formula: C8H11BrO
Atoms
  Index Symbol   x (angstrom)   y (angstrom)   z (angstrom)
      1      C    -2.04792503    -2.47303276     0.26648369
      2      O    -1.39760337    -1.38487150     0.96397883
      3      C    -1.26571546    -0.21699914     0.27159839
      4      C    -2.32182718     0.41343641    -0.65107262
      5      C    -3.11113876     1.44284847     0.25071713
      6      C    -2.03796668     2.54973468     0.54000765
      7      C    -0.76659625     2.00883527    -0.21824557
      8      C    -1.42859375     1.37767506    -1.47767567
      9      C    -0.33823292     0.73660430     0.49920569
     10     Br     1.03250378     0.68946664     1.82536534
     11      H    -3.10541155    -2.24873352     0.07547934
     12      H    -1.53618851    -2.68723773    -0.68146764
     13      H    -1.97168986    -3.33647815     0.93162331
     14      H    -2.95365720    -0.28098031    -1.20909763
     15      H    -3.48803009     0.96825720     1.16178999
     16      H    -3.96646388     1.84902174    -0.30195681
     17      H    -2.34469250     3.51948818     0.13010548
     18      H    -1.83770090     2.67861000     1.60785632
     19      H     0.02329637     2.74530664    -0.37823973
     20      H    -2.00881547     2.09887970    -2.06612525
     21      H    -0.70982079     0.85490884    -2.11611023

Total System Charge              0.00000

 *** GO1_GOStep8 ***

 Energy gradients wrt nuclear displacements
 ==========================================

     Atom      Cartesian (a.u./angstrom)
                 X         Y         Z
 ----------------------------------------
     1 C     0.000035  0.000077  0.000059
     2 O    -0.000064  0.000228 -0.000129
     3 C    -0.000227 -0.000194  0.000146
     4 C     0.000644 -0.000583 -0.000232
     5 C    -0.000253  0.000408  0.000128
     6 C    -0.000051 -0.000114 -0.000191
     7 C    -0.000066 -0.000090  0.000353
     8 C    -0.000104  0.000169 -0.000106
     9 C    -0.000117  0.000246 -0.000240
    10 Br    0.000027  0.000055  0.000234
    11 H     0.000071 -0.000053 -0.000047
    12 H     0.000096  0.000010 -0.000023
    13 H     0.000030 -0.000037  0.000009
    14 H    -0.000134  0.000004  0.000031
    15 H     0.000012 -0.000081 -0.000081
    16 H     0.000001 -0.000089 -0.000119
    17 H    -0.000052 -0.000037 -0.000023
    18 H    -0.000066  0.000038  0.000031
    19 H     0.000074  0.000071  0.000141
    20 H     0.000081 -0.000034 -0.000016
    21 H     0.000062  0.000006  0.000077
 ----------------------------------------

 dE(predicted):    -0.12986E-05, dE(actual):     0.29537E-05, Trust radius:    0.020000, all in a.u.
 
----------------------------------------------------------------------
Geometry Convergence after Step   8       (Hartree/Angstrom,Angstrom)
----------------------------------------------------------------------
current energy                               -4.20973950 Hartree
energy change                       0.00000295     0.00021000    T
constrained gradient max            0.00061557     0.00010000    F
constrained gradient rms            0.00016384     0.00006667    F
gradient max                        0.00061557
gradient rms                        0.00016384
cart. step max                      0.00166160     0.01000000    T
cart. step rms                      0.00050194     0.00666667    T
 

--------
Geometry
--------
Formula: C8H11BrO
Atoms
  Index Symbol   x (angstrom)   y (angstrom)   z (angstrom)
      1      C    -2.04795534    -2.47289159     0.26659605
      2      O    -1.39700149    -1.38507397     0.96411334
      3      C    -1.26541806    -0.21683925     0.27169769
      4      C    -2.32211360     0.41369253    -0.65081677
      5      C    -3.11143186     1.44273584     0.25044933
      6      C    -2.03824081     2.54949231     0.54043071
      7      C    -0.76673670     2.00898378    -0.21818305
      8      C    -1.42847476     1.37747295    -1.47741670
      9      C    -0.33804004     0.73672950     0.49949940
     10     Br     1.03408287     0.68893456     1.82370374
     11      H    -3.10532337    -2.24775445     0.07567034
     12      H    -1.53639831    -2.68755710    -0.68128735
     13      H    -1.97229157    -3.33623103     0.93187895
     14      H    -2.95262402    -0.28133178    -1.20949413
     15      H    -3.48941887     0.96843384     1.16121380
     16      H    -3.96628320     1.84949947    -0.30258609
     17      H    -2.34487099     3.51943690     0.13080667
     18      H    -1.83842506     2.67796727     1.60836190
     19      H     0.02274410     2.74566394    -0.37866464
     20      H    -2.00849548     2.09870974    -2.06607907
     21      H    -0.70955345     0.85466655    -2.11567413

Total System Charge              0.00000

 *** GO1_GOStep9 ***

 Energy gradients wrt nuclear displacements
 ==========================================

     Atom      Cartesian (a.u./angstrom)
                 X         Y         Z
 ----------------------------------------
     1 C     0.000112 -0.000032 -0.000046
     2 O    -0.000080 -0.000017  0.000109
     3 C    -0.000011  0.000063 -0.000110
     4 C     0.000123 -0.000177 -0.000128
     5 C    -0.000058  0.000233  0.000095
     6 C    -0.000080 -0.000183  0.000006
     7 C    -0.000027  0.000070  0.000115
     8 C     0.000017 -0.000069 -0.000042
     9 C    -0.000014  0.000098  0.000071
    10 Br   -0.000084  0.000052  0.000117
    11 H     0.000026 -0.000001 -0.000034
    12 H     0.000067  0.000006  0.000027
    13 H     0.000040  0.000014 -0.000002
    14 H     0.000061 -0.000032 -0.000037
    15 H    -0.000058 -0.000044 -0.000105
    16 H    -0.000011 -0.000052 -0.000096
    17 H    -0.000031 -0.000006 -0.000054
    18 H    -0.000149  0.000048  0.000000
    19 H    -0.000022  0.000022  0.000069
    20 H     0.000080 -0.000017  0.000004
    21 H     0.000099  0.000024  0.000044
 ----------------------------------------

 dE(predicted):    -0.63682E-06, dE(actual):     0.16960E-05, Trust radius:    0.020000, all in a.u.
 
----------------------------------------------------------------------
Geometry Convergence after Step   9       (Hartree/Angstrom,Angstrom)
----------------------------------------------------------------------
current energy                               -4.20973781 Hartree
energy change                       0.00000170     0.00021000    T
constrained gradient max            0.00025586     0.00010000    F
constrained gradient rms            0.00006238     0.00006667    T
gradient max                        0.00025586
gradient rms                        0.00006238
cart. step max                      0.00101621     0.01000000    T
cart. step rms                      0.00028502     0.00666667    T
 

--------
Geometry
--------
Formula: C8H11BrO
Atoms
  Index Symbol   x (angstrom)   y (angstrom)   z (angstrom)
      1      C    -2.04815571    -2.47285996     0.26674324
      2      O    -1.39646610    -1.38521030     0.96385833
      3      C    -1.26513394    -0.21685021     0.27156949
      4      C    -2.32194376     0.41371733    -0.65090241
      5      C    -3.11133617     1.44242631     0.25036660
      6      C    -2.03826959     2.54938376     0.54048119
      7      C    -0.76670811     2.00908548    -0.21827380
      8      C    -1.42850191     1.37770687    -1.47744794
      9      C    -0.33785671     0.73679055     0.49939092
     10     Br     1.03408347     0.68921993     1.82377480
     11      H    -3.10530278    -2.24704700     0.07543492
     12      H    -1.53651681    -2.68838709    -0.68090328
     13      H    -1.97330778    -3.33593919     0.93245886
     14      H    -2.95217337    -0.28135695    -1.20981591
     15      H    -3.48930581     0.96809944     1.16113638
     16      H    -3.96622417     1.84921558    -0.30260666
     17      H    -2.34515677     3.51938396     0.13117381
     18      H    -1.83829950     2.67749292     1.60841448
     19      H     0.02263173     2.74589036    -0.37879747
     20      H    -2.00870015     2.09894475    -2.06597122
     21      H    -0.70962605     0.85503348    -2.11586434

Total System Charge              0.00000

 *** GO1_GOStep10 ***

 Energy gradients wrt nuclear displacements
 ==========================================

     Atom      Cartesian (a.u./angstrom)
                 X         Y         Z
 ----------------------------------------
     1 C     0.000087 -0.000048 -0.000035
     2 O    -0.000037 -0.000041  0.000103
     3 C     0.000003  0.000082 -0.000056
     4 C     0.000074 -0.000076 -0.000083
     5 C    -0.000017  0.000131  0.000030
     6 C    -0.000094 -0.000120 -0.000014
     7 C     0.000018  0.000052  0.000071
     8 C    -0.000013 -0.000026 -0.000010
     9 C    -0.000014  0.000029  0.000102
    10 Br   -0.000095  0.000053  0.000115
    11 H     0.000025 -0.000011 -0.000040
    12 H     0.000072  0.000005  0.000035
    13 H     0.000035  0.000006 -0.000006
    14 H     0.000093 -0.000025 -0.000052
    15 H    -0.000063 -0.000040 -0.000094
    16 H    -0.000013 -0.000043 -0.000095
    17 H    -0.000050  0.000003 -0.000050
    18 H    -0.000131  0.000022 -0.000016
    19 H    -0.000041  0.000022  0.000055
    20 H     0.000066 -0.000002 -0.000011
    21 H     0.000096  0.000025  0.000051
 ----------------------------------------
 
----------------------------------------------------------------------
Geometry Convergence after Step  10       (Hartree/Angstrom,Angstrom)
----------------------------------------------------------------------
current energy                               -4.20973834 Hartree
energy change                      -0.00000053     0.00021000    T
constrained gradient max            0.00015479     0.00010000    F
constrained gradient rms            0.00003956     0.00006667    T
gradient max                        0.00015479
gradient rms                        0.00003956
cart. step max                      0.00143560     0.01000000    T
cart. step rms                      0.00035392     0.00666667    T
 

--------
Geometry
--------
Formula: C8H11BrO
Atoms
  Index Symbol   x (angstrom)   y (angstrom)   z (angstrom)
      1      C    -2.04838145    -2.47263290     0.26679140
      2      O    -1.39593578    -1.38524559     0.96358200
      3      C    -1.26480367    -0.21683830     0.27144718
      4      C    -2.32178344     0.41366972    -0.65093927
      5      C    -3.11124940     1.44203345     0.25033320
      6      C    -2.03832565     2.54924038     0.54059343
      7      C    -0.76673905     2.00920907    -0.21837644
      8      C    -1.42846414     1.37778813    -1.47748132
      9      C    -0.33762574     0.73691680     0.49921026
     10     Br     1.03423870     0.68967388     1.82369359
     11      H    -3.10518519    -2.24594830     0.07473457
     12      H    -1.53640752    -2.68921732    -0.68045209
     13      H    -1.97474339    -3.33540226     0.93305605
     14      H    -2.95187980    -0.28145802    -1.20994767
     15      H    -3.48913156     0.96768646     1.16114236
     16      H    -3.96620589     1.84879304    -0.30256787
     17      H    -2.34552955     3.51929122     0.13167131
     18      H    -1.83813797     2.67694518     1.60853460
     19      H     0.02247396     2.74616880    -0.37884707
     20      H    -2.00883076     2.09891642    -2.06599124
     21      H    -0.70962270     0.85515012    -2.11596696

Total System Charge              0.00000

 *** GO1_GOStep11 ***

 Energy gradients wrt nuclear displacements
 ==========================================

     Atom      Cartesian (a.u./angstrom)
                 X         Y         Z
 ----------------------------------------
     1 C     0.000052 -0.000020 -0.000019
     2 O    -0.000004 -0.000003  0.000049
     3 C     0.000006  0.000035  0.000007
     4 C     0.000014  0.000004 -0.000039
     5 C     0.000001  0.000008 -0.000049
     6 C    -0.000094 -0.000027 -0.000016
     7 C     0.000011  0.000034  0.000037
     8 C     0.000030 -0.000023  0.000036
     9 C    -0.000007  0.000006  0.000092
    10 Br   -0.000098  0.000059  0.000117
    11 H     0.000034 -0.000023 -0.000049
    12 H     0.000085  0.000004  0.000030
    13 H     0.000032 -0.000003 -0.000001
    14 H     0.000088 -0.000027 -0.000057
    15 H    -0.000062 -0.000031 -0.000077
    16 H    -0.000016 -0.000040 -0.000098
    17 H    -0.000066 -0.000000 -0.000039
    18 H    -0.000110  0.000001 -0.000016
    19 H    -0.000040  0.000030  0.000061
    20 H     0.000056 -0.000002 -0.000016
    21 H     0.000088  0.000017  0.000047
 ----------------------------------------
 
---------------------------------------------------------
Geometry Convergence after Step  11       ** CONVERGED **
---------------------------------------------------------
current energy                               -4.20973886 Hartree
energy change                      -0.00000052     0.00021000    T
constrained gradient max            0.00003235     0.00010000    T
constrained gradient rms            0.00001433     0.00006667    T
gradient max                        0.00003235
gradient rms                        0.00001433
cart. step max                      0.00045979     0.01000000    T
cart. step rms                      0.00012445     0.00666667    T
 
Geometry optimization converged

Optimized geometry:

--------
Geometry
--------
Formula: C8H11BrO
Atoms
  Index Symbol   x (angstrom)   y (angstrom)   z (angstrom)
      1      C    -2.04838145    -2.47263290     0.26679140
      2      O    -1.39593578    -1.38524559     0.96358200
      3      C    -1.26480367    -0.21683830     0.27144718
      4      C    -2.32178344     0.41366972    -0.65093927
      5      C    -3.11124940     1.44203345     0.25033320
      6      C    -2.03832565     2.54924038     0.54059343
      7      C    -0.76673905     2.00920907    -0.21837644
      8      C    -1.42846414     1.37778813    -1.47748132
      9      C    -0.33762574     0.73691680     0.49921026
     10     Br     1.03423870     0.68967388     1.82369359
     11      H    -3.10518519    -2.24594830     0.07473457
     12      H    -1.53640752    -2.68921732    -0.68045209
     13      H    -1.97474339    -3.33540226     0.93305605
     14      H    -2.95187980    -0.28145802    -1.20994767
     15      H    -3.48913156     0.96768646     1.16114236
     16      H    -3.96620589     1.84879304    -0.30256787
     17      H    -2.34552955     3.51929122     0.13167131
     18      H    -1.83813797     2.67694518     1.60853460
     19      H     0.02247396     2.74616880    -0.37884707
     20      H    -2.00883076     2.09891642    -2.06599124
     21      H    -0.70962270     0.85515012    -2.11596696

Total System Charge              0.00000

Performing a single point calculation on the final geometry ...

 *** adf ***



 ===========================
 A T T A C H E D   F I L E S
 ===========================
  
 Restart/tmp/amstmp_c5_fragB_opt_kid0.283104118/GO1_GOStep11.rkf*** GO1_GOStep11 ***



 ===============================
 M O D E L   P A R A M E T E R S
 ===============================
  
 DENSITY FUNCTIONAL POTENTIAL (scf)
    LDA:                               Exchange only                           == Not Default ==
    Gradient Corrections:              Becke88 LYP                             == Not Default ==

 SPIN  (restricted / unrestr.)
    Molecule:                          Restricted                               
    Fragments:                         Restricted                               

 OTHER ASPECTS
    Relativistic Corrections:          scalar (ZORA,MAPA)                       

    Nuclear Charge Density Model:      Point Charge Nuclei                      
    Core Treatment:                    Frozen Orbital(s)                        

    Hyperfine or Zeeman Interaction:   ---                                      

 Settings for Grimme D3 dispersion correction

      damping                        BJ
      s6                          1.000
      s8                          2.700
      a1                          0.430
      a2                          4.236

 Other (technical) parameters

      alpha                      14.000
      version                         4
 



 ===============
 G E O M E T R Y  ***  3D  Molecule  ***
 ===============
  

 ATOMS
 =====                            X Y Z                    CHARGE
                                (Angstrom)             Nucl     +Core       At.Mass
                       --------------------------    ----------------       -------
    1  C              -2.0484   -2.4726    0.2668      6.00      6.00       12.0000
    2  O              -1.3959   -1.3852    0.9636      8.00      8.00       15.9949
    3  C              -1.2648   -0.2168    0.2714      6.00      6.00       12.0000
    4  C              -2.3218    0.4137   -0.6509      6.00      6.00       12.0000
    5  C              -3.1112    1.4420    0.2503      6.00      6.00       12.0000
    6  C              -2.0383    2.5492    0.5406      6.00      6.00       12.0000
    7  C              -0.7667    2.0092   -0.2184      6.00      6.00       12.0000
    8  C              -1.4285    1.3778   -1.4775      6.00      6.00       12.0000
    9  C              -0.3376    0.7369    0.4992      6.00      6.00       12.0000
   10  Br              1.0342    0.6897    1.8237     35.00     35.00       78.9183
   11  H              -3.1052   -2.2459    0.0747      1.00      1.00        1.0078
   12  H              -1.5364   -2.6892   -0.6805      1.00      1.00        1.0078
   13  H              -1.9747   -3.3354    0.9331      1.00      1.00        1.0078
   14  H              -2.9519   -0.2815   -1.2099      1.00      1.00        1.0078
   15  H              -3.4891    0.9677    1.1611      1.00      1.00        1.0078
   16  H              -3.9662    1.8488   -0.3026      1.00      1.00        1.0078
   17  H              -2.3455    3.5193    0.1317      1.00      1.00        1.0078
   18  H              -1.8381    2.6769    1.6085      1.00      1.00        1.0078
   19  H               0.0225    2.7462   -0.3788      1.00      1.00        1.0078
   20  H              -2.0088    2.0989   -2.0660      1.00      1.00        1.0078
   21  H              -0.7096    0.8552   -2.1160      1.00      1.00        1.0078


 FRAGMENTS
 =========                                     Atoms in this Fragment     Cart. coord.s (Angstrom)
                                               -------------------------------------------------------
    1  C                                                 1  C           -2.0484   -2.4726    0.2668
    2  C                                                 3  C           -1.2648   -0.2168    0.2714
    3  C                                                 4  C           -2.3218    0.4137   -0.6509
    4  C                                                 5  C           -3.1112    1.4420    0.2503
    5  C                                                 6  C           -2.0383    2.5492    0.5406
    6  C                                                 7  C           -0.7667    2.0092   -0.2184
    7  C                                                 8  C           -1.4285    1.3778   -1.4775
    8  C                                                 9  C           -0.3376    0.7369    0.4992
    9  O                                                 2  O           -1.3959   -1.3852    0.9636
   10  Br                                               10  Br           1.0342    0.6897    1.8237
   11  H                                                11  H           -3.1052   -2.2459    0.0747
   12  H                                                12  H           -1.5364   -2.6892   -0.6805
   13  H                                                13  H           -1.9747   -3.3354    0.9331
   14  H                                                14  H           -2.9519   -0.2815   -1.2099
   15  H                                                15  H           -3.4891    0.9677    1.1611
   16  H                                                16  H           -3.9662    1.8488   -0.3026
   17  H                                                17  H           -2.3455    3.5193    0.1317
   18  H                                                18  H           -1.8381    2.6769    1.6085
   19  H                                                19  H            0.0225    2.7462   -0.3788
   20  H                                                20  H           -2.0088    2.0989   -2.0660
   21  H                                                21  H           -0.7096    0.8552   -2.1160



 =====================================
 S Y M M E T R Y ,   E L E C T R O N S
 =====================================
  
 Symmetry: NOSYM

 Irreducible Representations, including subspecies
 -------------------------------------------------
 A


 Configuration of Valence Electrons
 ==================================
 ( determined in the SCF procedure )

 Total:   102

 Net Charge: 0 (Nuclei minus Electrons)

 Aufbau principle for MO occupations will be applied through SCF cycle no.     100
 Thereafter, the program will assign electrons to MOs that are spatially
 similar to the occupied MOs in a "reference" cycle ("KeepOrbitals").
 The reference cycle is always the PREVIOUS cycle: it will evolve with
 the SCF procedure.
 ***************************************************************************************************



                                      ****************************************
                                      *  B U I L D : (Fragments, Functions)  *
                                      ****************************************
  



 =======
 S F O s  ***  (Symmetrized Fragment Orbitals)  ***
 =======
  
 SFOs are linear combinations of (valence) Fragment Orbitals (FOs), such that the SFOs transform as the
 irreducible representations of the (molecular) symmetry group. Each SFO is therefore characterized by
 an irrep of the molecule and by a few (or only one) generating FOs.
 The SFOs constitute a symmetry-adapted basis for the Fock matrix. The MO eigenvector coefficients in
 this basis provide a direct interpretation of the MOs in terms of Frontier Orbital Theory.

 The SFOs are combined with auxiliary Core Functions (CFs) to ensure orthogonalization on the (frozen)
 Core Orbitals (COs). The Core-orthogonalized SFOs (CSFOs) constitute the true Fock basis.

 The FOs, and hence also the (C)SFOs are combinations of the elementary basis functions (BAS). The basis
 functions that participate in the description of the SFOs depend on the irrep. The indices of the
 involved functions are printed below for each irrep.
 (The complete list of primitive basis functions is printed in another section)

 Total nr. of (C)SFOs (summation over all irreps) :   411

 NOTE: a (C)SFO that is defined as a combination of more than one FO is usually NOT normalized.



                                       === A ===
 Nr. of SFOs :  411
 Cartesian basis functions that participate in this irrep (total number =   465) :
      1     2     3     4     5     6     9    12     7    10
     13     8    11    14    15    16    17    18    19    20
     21    22    23    24    25    26    27    28    29    30
     31    32    33    34    35    36    39    42    37    40
     43    38    41    44    45    46    47    48    49    50
     51    52    53    54    55    56    57    58    59    60
     61    62    63    64    65    66    69    72    67    70
     73    68    71    74    75    76    77    78    79    80
     81    82    83    84    85    86    87    88    89    90
     91    92    93    94    95    96    99   102    97   100
    103    98   101   104   105   106   107   108   109   110
    111   112   113   114   115   116   117   118   119   120
    121   122   123   124   125   126   129   132   127   130
    133   128   131   134   135   136   137   138   139   140
    141   142   143   144   145   146   147   148   149   150
    151   152   153   154   155   156   159   162   157   160
    163   158   161   164   165   166   167   168   169   170
    171   172   173   174   175   176   177   178   179   180
    181   182   183   184   185   186   189   192   187   190
    193   188   191   194   195   196   197   198   199   200
    201   202   203   204   205   206   207   208   209   210
    211   212   213   214   215   216   219   222   217   220
    223   218   221   224   225   226   227   228   229   230
    231   232   233   234   235   236   237   238   239   240
    241   242   243   244   245   246   249   252   247   250
    253   248   251   254   255   256   257   258   259   260
    261   262   263   264   265   266   267   268   269   270
    271   272   273   280   281   306   307   308   274   277
    282   285   309   312   315   275   278   283   286   310
    313   316   276   279   284   287   311   314   317   288
    294   300   318   289   295   301   319   290   296   302
    320   291   297   303   321   292   298   304   322   293
    299   305   323   324   325   326   327   328   329   330
    331   332   333   334   335   336   337   338   339   340
    341   342   343   344   345   346   347   348   349   350
    351   352   353   354   355   356   357   358   359   360
    361   362   363   364   365   366   367   368   369   370
    371   372   373   374   375   376   377   378   379   380
    381   382   383   384   385   386   387   388   389   390
    391   392   393   394   395   396   397   398   399   400
    401   402   403   404   405   406   407   408   409   410
    411   412   413   414   415   416   417   418   419   420
    421   422   423   424   425   426   427   428   429   430
    431   432   433   434   435   436   437   438   439   440
    441   442   443   444   445   446   447   448   449   450
    451   452   453   454   455   456   457   458   459   460
    461   462   463   464   465

    SFO  (index         Fragment          Generating    Expansion in Fragment Orbitals
  indx  incl.CFs)   Occup   Orb.Energy   FragmentType  Coeff.   Orbital     on Fragment
 --------------------------------------------------------------------------------------
     1       1      2.000     -10.066 au  C             1.00      1 S               1
                        (    -273.921 eV)
     2       2      2.000      -0.501 au  C             1.00      2 S               1
                        (     -13.620 eV)
     3       3       --         0.373 au  C             1.00      3 S               1
                        (      10.158 eV)
     4       4       --         5.405 au  C             1.00      4 S               1
                        (     147.073 eV)
     5       5       --        49.848 au  C             1.00      5 S               1
                        (    1356.422 eV)
     6       6      0.667      -0.193 au  C             1.00      1 P:x             1
                        (      -5.239 eV)
     7       7       --         0.169 au  C             1.00      2 P:x             1
                        (       4.589 eV)
     8       8       --         2.013 au  C             1.00      3 P:x             1
                        (      54.789 eV)
     9       9      0.667      -0.193 au  C             1.00      1 P:y             1
                        (      -5.239 eV)
    10      10       --         0.169 au  C             1.00      2 P:y             1
                        (       4.589 eV)
    11      11       --         2.013 au  C             1.00      3 P:y             1
                        (      54.789 eV)
    12      12      0.667      -0.193 au  C             1.00      1 P:z             1
                        (      -5.239 eV)
    13      13       --         0.169 au  C             1.00      2 P:z             1
                        (       4.589 eV)
    14      14       --         2.013 au  C             1.00      3 P:z             1
                        (      54.789 eV)
    15      15       --         1.243 au  C             1.00      1 D:z2            1
                        (      33.824 eV)
    16      16       --         1.243 au  C             1.00      1 D:x2-y2         1
                        (      33.824 eV)
    17      17       --         1.243 au  C             1.00      1 D:xy            1
                        (      33.824 eV)
    18      18       --         1.243 au  C             1.00      1 D:xz            1
                        (      33.824 eV)
    19      19       --         1.243 au  C             1.00      1 D:yz            1
                        (      33.824 eV)
    20      20       --         4.016 au  C             1.00      1 F:z3            1
                        (     109.271 eV)
    21      21       --         4.016 au  C             1.00      1 F:z             1
                        (     109.271 eV)
    22      22       --         4.016 au  C             1.00      1 F:xyz           1
                        (     109.271 eV)
    23      23       --         4.016 au  C             1.00      1 F:z2x           1
                        (     109.271 eV)
    24      24       --         4.016 au  C             1.00      1 F:z2y           1
                        (     109.271 eV)
    25      25       --         4.016 au  C             1.00      1 F:x             1
                        (     109.271 eV)
    26      26       --         4.016 au  C             1.00      1 F:y             1
                        (     109.271 eV)
    27      27      2.000     -10.066 au  C             1.00      1 S               2
                        (    -273.921 eV)
    28      28      2.000      -0.501 au  C             1.00      2 S               2
                        (     -13.620 eV)
    29      29       --         0.373 au  C             1.00      3 S               2
                        (      10.158 eV)
    30      30       --         5.405 au  C             1.00      4 S               2
                        (     147.073 eV)
    31      31       --        49.848 au  C             1.00      5 S               2
                        (    1356.422 eV)
    32      32      0.667      -0.193 au  C             1.00      1 P:x             2
                        (      -5.239 eV)
    33      33       --         0.169 au  C             1.00      2 P:x             2
                        (       4.589 eV)
    34      34       --         2.013 au  C             1.00      3 P:x             2
                        (      54.789 eV)
    35      35      0.667      -0.193 au  C             1.00      1 P:y             2
                        (      -5.239 eV)
    36      36       --         0.169 au  C             1.00      2 P:y             2
                        (       4.589 eV)
    37      37       --         2.013 au  C             1.00      3 P:y             2
                        (      54.789 eV)
    38      38      0.667      -0.193 au  C             1.00      1 P:z             2
                        (      -5.239 eV)
    39      39       --         0.169 au  C             1.00      2 P:z             2
                        (       4.589 eV)
    40      40       --         2.013 au  C             1.00      3 P:z             2
                        (      54.789 eV)
    41      41       --         1.243 au  C             1.00      1 D:z2            2
                        (      33.824 eV)
    42      42       --         1.243 au  C             1.00      1 D:x2-y2         2
                        (      33.824 eV)
    43      43       --         1.243 au  C             1.00      1 D:xy            2
                        (      33.824 eV)
    44      44       --         1.243 au  C             1.00      1 D:xz            2
                        (      33.824 eV)
    45      45       --         1.243 au  C             1.00      1 D:yz            2
                        (      33.824 eV)
    46      46       --         4.016 au  C             1.00      1 F:z3            2
                        (     109.271 eV)
    47      47       --         4.016 au  C             1.00      1 F:z             2
                        (     109.271 eV)
    48      48       --         4.016 au  C             1.00      1 F:xyz           2
                        (     109.271 eV)
    49      49       --         4.016 au  C             1.00      1 F:z2x           2
                        (     109.271 eV)
    50      50       --         4.016 au  C             1.00      1 F:z2y           2
                        (     109.271 eV)
    51      51       --         4.016 au  C             1.00      1 F:x             2
                        (     109.271 eV)
    52      52       --         4.016 au  C             1.00      1 F:y             2
                        (     109.271 eV)
    53      53      2.000     -10.066 au  C             1.00      1 S               3
                        (    -273.921 eV)
    54      54      2.000      -0.501 au  C             1.00      2 S               3
                        (     -13.620 eV)
    55      55       --         0.373 au  C             1.00      3 S               3
                        (      10.158 eV)
    56      56       --         5.405 au  C             1.00      4 S               3
                        (     147.073 eV)
    57      57       --        49.848 au  C             1.00      5 S               3
                        (    1356.422 eV)
    58      58      0.667      -0.193 au  C             1.00      1 P:x             3
                        (      -5.239 eV)
    59      59       --         0.169 au  C             1.00      2 P:x             3
                        (       4.589 eV)
    60      60       --         2.013 au  C             1.00      3 P:x             3
                        (      54.789 eV)
    61      61      0.667      -0.193 au  C             1.00      1 P:y             3
                        (      -5.239 eV)
    62      62       --         0.169 au  C             1.00      2 P:y             3
                        (       4.589 eV)
    63      63       --         2.013 au  C             1.00      3 P:y             3
                        (      54.789 eV)
    64      64      0.667      -0.193 au  C             1.00      1 P:z             3
                        (      -5.239 eV)
    65      65       --         0.169 au  C             1.00      2 P:z             3
                        (       4.589 eV)
    66      66       --         2.013 au  C             1.00      3 P:z             3
                        (      54.789 eV)
    67      67       --         1.243 au  C             1.00      1 D:z2            3
                        (      33.824 eV)
    68      68       --         1.243 au  C             1.00      1 D:x2-y2         3
                        (      33.824 eV)
    69      69       --         1.243 au  C             1.00      1 D:xy            3
                        (      33.824 eV)
    70      70       --         1.243 au  C             1.00      1 D:xz            3
                        (      33.824 eV)
    71      71       --         1.243 au  C             1.00      1 D:yz            3
                        (      33.824 eV)
    72      72       --         4.016 au  C             1.00      1 F:z3            3
                        (     109.271 eV)
    73      73       --         4.016 au  C             1.00      1 F:z             3
                        (     109.271 eV)
    74      74       --         4.016 au  C             1.00      1 F:xyz           3
                        (     109.271 eV)
    75      75       --         4.016 au  C             1.00      1 F:z2x           3
                        (     109.271 eV)
    76      76       --         4.016 au  C             1.00      1 F:z2y           3
                        (     109.271 eV)
    77      77       --         4.016 au  C             1.00      1 F:x             3
                        (     109.271 eV)
    78      78       --         4.016 au  C             1.00      1 F:y             3
                        (     109.271 eV)
    79      79      2.000     -10.066 au  C             1.00      1 S               4
                        (    -273.921 eV)
    80      80      2.000      -0.501 au  C             1.00      2 S               4
                        (     -13.620 eV)
    81      81       --         0.373 au  C             1.00      3 S               4
                        (      10.158 eV)
    82      82       --         5.405 au  C             1.00      4 S               4
                        (     147.073 eV)
    83      83       --        49.848 au  C             1.00      5 S               4
                        (    1356.422 eV)
    84      84      0.667      -0.193 au  C             1.00      1 P:x             4
                        (      -5.239 eV)
    85      85       --         0.169 au  C             1.00      2 P:x             4
                        (       4.589 eV)
    86      86       --         2.013 au  C             1.00      3 P:x             4
                        (      54.789 eV)
    87      87      0.667      -0.193 au  C             1.00      1 P:y             4
                        (      -5.239 eV)
    88      88       --         0.169 au  C             1.00      2 P:y             4
                        (       4.589 eV)
    89      89       --         2.013 au  C             1.00      3 P:y             4
                        (      54.789 eV)
    90      90      0.667      -0.193 au  C             1.00      1 P:z             4
                        (      -5.239 eV)
    91      91       --         0.169 au  C             1.00      2 P:z             4
                        (       4.589 eV)
    92      92       --         2.013 au  C             1.00      3 P:z             4
                        (      54.789 eV)
    93      93       --         1.243 au  C             1.00      1 D:z2            4
                        (      33.824 eV)
    94      94       --         1.243 au  C             1.00      1 D:x2-y2         4
                        (      33.824 eV)
    95      95       --         1.243 au  C             1.00      1 D:xy            4
                        (      33.824 eV)
    96      96       --         1.243 au  C             1.00      1 D:xz            4
                        (      33.824 eV)
    97      97       --         1.243 au  C             1.00      1 D:yz            4
                        (      33.824 eV)
    98      98       --         4.016 au  C             1.00      1 F:z3            4
                        (     109.271 eV)
    99      99       --         4.016 au  C             1.00      1 F:z             4
                        (     109.271 eV)
   100     100       --         4.016 au  C             1.00      1 F:xyz           4
                        (     109.271 eV)
   101     101       --         4.016 au  C             1.00      1 F:z2x           4
                        (     109.271 eV)
   102     102       --         4.016 au  C             1.00      1 F:z2y           4
                        (     109.271 eV)
   103     103       --         4.016 au  C             1.00      1 F:x             4
                        (     109.271 eV)
   104     104       --         4.016 au  C             1.00      1 F:y             4
                        (     109.271 eV)
   105     105      2.000     -10.066 au  C             1.00      1 S               5
                        (    -273.921 eV)
   106     106      2.000      -0.501 au  C             1.00      2 S               5
                        (     -13.620 eV)
   107     107       --         0.373 au  C             1.00      3 S               5
                        (      10.158 eV)
   108     108       --         5.405 au  C             1.00      4 S               5
                        (     147.073 eV)
   109     109       --        49.848 au  C             1.00      5 S               5
                        (    1356.422 eV)
   110     110      0.667      -0.193 au  C             1.00      1 P:x             5
                        (      -5.239 eV)
   111     111       --         0.169 au  C             1.00      2 P:x             5
                        (       4.589 eV)
   112     112       --         2.013 au  C             1.00      3 P:x             5
                        (      54.789 eV)
   113     113      0.667      -0.193 au  C             1.00      1 P:y             5
                        (      -5.239 eV)
   114     114       --         0.169 au  C             1.00      2 P:y             5
                        (       4.589 eV)
   115     115       --         2.013 au  C             1.00      3 P:y             5
                        (      54.789 eV)
   116     116      0.667      -0.193 au  C             1.00      1 P:z             5
                        (      -5.239 eV)
   117     117       --         0.169 au  C             1.00      2 P:z             5
                        (       4.589 eV)
   118     118       --         2.013 au  C             1.00      3 P:z             5
                        (      54.789 eV)
   119     119       --         1.243 au  C             1.00      1 D:z2            5
                        (      33.824 eV)
   120     120       --         1.243 au  C             1.00      1 D:x2-y2         5
                        (      33.824 eV)
   121     121       --         1.243 au  C             1.00      1 D:xy            5
                        (      33.824 eV)
   122     122       --         1.243 au  C             1.00      1 D:xz            5
                        (      33.824 eV)
   123     123       --         1.243 au  C             1.00      1 D:yz            5
                        (      33.824 eV)
   124     124       --         4.016 au  C             1.00      1 F:z3            5
                        (     109.271 eV)
   125     125       --         4.016 au  C             1.00      1 F:z             5
                        (     109.271 eV)
   126     126       --         4.016 au  C             1.00      1 F:xyz           5
                        (     109.271 eV)
   127     127       --         4.016 au  C             1.00      1 F:z2x           5
                        (     109.271 eV)
   128     128       --         4.016 au  C             1.00      1 F:z2y           5
                        (     109.271 eV)
   129     129       --         4.016 au  C             1.00      1 F:x             5
                        (     109.271 eV)
   130     130       --         4.016 au  C             1.00      1 F:y             5
                        (     109.271 eV)
   131     131      2.000     -10.066 au  C             1.00      1 S               6
                        (    -273.921 eV)
   132     132      2.000      -0.501 au  C             1.00      2 S               6
                        (     -13.620 eV)
   133     133       --         0.373 au  C             1.00      3 S               6
                        (      10.158 eV)
   134     134       --         5.405 au  C             1.00      4 S               6
                        (     147.073 eV)
   135     135       --        49.848 au  C             1.00      5 S               6
                        (    1356.422 eV)
   136     136      0.667      -0.193 au  C             1.00      1 P:x             6
                        (      -5.239 eV)
   137     137       --         0.169 au  C             1.00      2 P:x             6
                        (       4.589 eV)
   138     138       --         2.013 au  C             1.00      3 P:x             6
                        (      54.789 eV)
   139     139      0.667      -0.193 au  C             1.00      1 P:y             6
                        (      -5.239 eV)
   140     140       --         0.169 au  C             1.00      2 P:y             6
                        (       4.589 eV)
   141     141       --         2.013 au  C             1.00      3 P:y             6
                        (      54.789 eV)
   142     142      0.667      -0.193 au  C             1.00      1 P:z             6
                        (      -5.239 eV)
   143     143       --         0.169 au  C             1.00      2 P:z             6
                        (       4.589 eV)
   144     144       --         2.013 au  C             1.00      3 P:z             6
                        (      54.789 eV)
   145     145       --         1.243 au  C             1.00      1 D:z2            6
                        (      33.824 eV)
   146     146       --         1.243 au  C             1.00      1 D:x2-y2         6
                        (      33.824 eV)
   147     147       --         1.243 au  C             1.00      1 D:xy            6
                        (      33.824 eV)
   148     148       --         1.243 au  C             1.00      1 D:xz            6
                        (      33.824 eV)
   149     149       --         1.243 au  C             1.00      1 D:yz            6
                        (      33.824 eV)
   150     150       --         4.016 au  C             1.00      1 F:z3            6
                        (     109.271 eV)
   151     151       --         4.016 au  C             1.00      1 F:z             6
                        (     109.271 eV)
   152     152       --         4.016 au  C             1.00      1 F:xyz           6
                        (     109.271 eV)
   153     153       --         4.016 au  C             1.00      1 F:z2x           6
                        (     109.271 eV)
   154     154       --         4.016 au  C             1.00      1 F:z2y           6
                        (     109.271 eV)
   155     155       --         4.016 au  C             1.00      1 F:x             6
                        (     109.271 eV)
   156     156       --         4.016 au  C             1.00      1 F:y             6
                        (     109.271 eV)
   157     157      2.000     -10.066 au  C             1.00      1 S               7
                        (    -273.921 eV)
   158     158      2.000      -0.501 au  C             1.00      2 S               7
                        (     -13.620 eV)
   159     159       --         0.373 au  C             1.00      3 S               7
                        (      10.158 eV)
   160     160       --         5.405 au  C             1.00      4 S               7
                        (     147.073 eV)
   161     161       --        49.848 au  C             1.00      5 S               7
                        (    1356.422 eV)
   162     162      0.667      -0.193 au  C             1.00      1 P:x             7
                        (      -5.239 eV)
   163     163       --         0.169 au  C             1.00      2 P:x             7
                        (       4.589 eV)
   164     164       --         2.013 au  C             1.00      3 P:x             7
                        (      54.789 eV)
   165     165      0.667      -0.193 au  C             1.00      1 P:y             7
                        (      -5.239 eV)
   166     166       --         0.169 au  C             1.00      2 P:y             7
                        (       4.589 eV)
   167     167       --         2.013 au  C             1.00      3 P:y             7
                        (      54.789 eV)
   168     168      0.667      -0.193 au  C             1.00      1 P:z             7
                        (      -5.239 eV)
   169     169       --         0.169 au  C             1.00      2 P:z             7
                        (       4.589 eV)
   170     170       --         2.013 au  C             1.00      3 P:z             7
                        (      54.789 eV)
   171     171       --         1.243 au  C             1.00      1 D:z2            7
                        (      33.824 eV)
   172     172       --         1.243 au  C             1.00      1 D:x2-y2         7
                        (      33.824 eV)
   173     173       --         1.243 au  C             1.00      1 D:xy            7
                        (      33.824 eV)
   174     174       --         1.243 au  C             1.00      1 D:xz            7
                        (      33.824 eV)
   175     175       --         1.243 au  C             1.00      1 D:yz            7
                        (      33.824 eV)
   176     176       --         4.016 au  C             1.00      1 F:z3            7
                        (     109.271 eV)
   177     177       --         4.016 au  C             1.00      1 F:z             7
                        (     109.271 eV)
   178     178       --         4.016 au  C             1.00      1 F:xyz           7
                        (     109.271 eV)
   179     179       --         4.016 au  C             1.00      1 F:z2x           7
                        (     109.271 eV)
   180     180       --         4.016 au  C             1.00      1 F:z2y           7
                        (     109.271 eV)
   181     181       --         4.016 au  C             1.00      1 F:x             7
                        (     109.271 eV)
   182     182       --         4.016 au  C             1.00      1 F:y             7
                        (     109.271 eV)
   183     183      2.000     -10.066 au  C             1.00      1 S               8
                        (    -273.921 eV)
   184     184      2.000      -0.501 au  C             1.00      2 S               8
                        (     -13.620 eV)
   185     185       --         0.373 au  C             1.00      3 S               8
                        (      10.158 eV)
   186     186       --         5.405 au  C             1.00      4 S               8
                        (     147.073 eV)
   187     187       --        49.848 au  C             1.00      5 S               8
                        (    1356.422 eV)
   188     188      0.667      -0.193 au  C             1.00      1 P:x             8
                        (      -5.239 eV)
   189     189       --         0.169 au  C             1.00      2 P:x             8
                        (       4.589 eV)
   190     190       --         2.013 au  C             1.00      3 P:x             8
                        (      54.789 eV)
   191     191      0.667      -0.193 au  C             1.00      1 P:y             8
                        (      -5.239 eV)
   192     192       --         0.169 au  C             1.00      2 P:y             8
                        (       4.589 eV)
   193     193       --         2.013 au  C             1.00      3 P:y             8
                        (      54.789 eV)
   194     194      0.667      -0.193 au  C             1.00      1 P:z             8
                        (      -5.239 eV)
   195     195       --         0.169 au  C             1.00      2 P:z             8
                        (       4.589 eV)
   196     196       --         2.013 au  C             1.00      3 P:z             8
                        (      54.789 eV)
[...]
                                    7.91%     2 S             -13.620  2.00     2 C
                                    6.98%     1 P:x            -5.239  0.67     5 C
                                    6.79%     1 P:x            -5.239  0.67     4 C
                                    6.42%     1 P:z            -5.239  0.67     6 C
                                   -5.69%     2 P:x             4.589  0.00     4 C
                                    4.95%     1 P:y            -5.239  0.67     3 C
                                    4.41%     2 S             -13.620  2.00     4 C
                                    4.30%     2 P:y             4.589  0.00     5 C
                                    4.04%     2 P:z             4.589  0.00     2 C
                                   -3.78%     3 S              10.158  0.00     4 C
                                   -3.36%     2 P:y             9.437  0.00     9 O
                                    3.18%     1 P:x            -5.239  0.67     1 C
                                    2.95%     1 S              -6.532  1.00    17 H
                                   -2.77%     2 P:z             4.589  0.00     6 C
                                   -2.72%     2 P:z             4.589  0.00     8 C
                                   -2.69%     2 S               2.394  0.00    11 H
                                   -2.65%     2 P:x             4.589  0.00     5 C
                                    2.50%     1 S              -6.532  1.00    11 H
                                   -2.40%     2 P:y             4.589  0.00     2 C
                                    2.39%     1 P:y            -9.020  1.33     9 O
                                   -2.36%     3 S              10.158  0.00     2 C
                                   -2.25%     2 P:x             4.589  0.00     8 C
                                    2.06%     1 P:y            -5.239  0.67     2 C
                                   -1.97%     2 P:y             4.589  0.00     3 C
                                   -1.89%     2 S               2.394  0.00    17 H
                                    1.75%     2 P:x             4.589  0.00     1 C
                                    1.62%     2 D:z2            7.341  0.00    10 Br
                                    1.58%     2 S               2.394  0.00    20 H
                                    1.49%     1 P:z            -5.239  0.67     7 C
                                    1.39%     1 P:z            -5.239  0.67     2 C
                                    1.33%     2 S               2.394  0.00    14 H
                                    1.31%     1 P:y            -5.239  0.67     7 C
                                    1.28%     2 P:x             4.589  0.00     7 C
                                    1.24%     2 P:y             4.589  0.00     7 C
                                    1.15%     2 D:x2-y2         7.341  0.00    10 Br
                                   -1.08%     2 P:y             4.589  0.00     6 C

 Energy gradients wrt nuclear displacements
 ==========================================

     Atom      Cartesian (a.u./angstrom)
                 X         Y         Z
 ----------------------------------------
     1 C     0.000052 -0.000020 -0.000019
     2 O    -0.000004 -0.000003  0.000049
     3 C     0.000006  0.000035  0.000007
     4 C     0.000014  0.000004 -0.000039
     5 C     0.000001  0.000008 -0.000049
     6 C    -0.000094 -0.000027 -0.000016
     7 C     0.000011  0.000034  0.000037
     8 C     0.000030 -0.000023  0.000036
     9 C    -0.000007  0.000006  0.000092
    10 Br   -0.000098  0.000059  0.000117
    11 H     0.000034 -0.000023 -0.000049
    12 H     0.000085  0.000004  0.000030
    13 H     0.000032 -0.000003 -0.000001
    14 H     0.000088 -0.000027 -0.000057
    15 H    -0.000062 -0.000031 -0.000077
    16 H    -0.000016 -0.000040 -0.000098
    17 H    -0.000066 -0.000000 -0.000039
    18 H    -0.000110  0.000001 -0.000016
    19 H    -0.000040  0.000030  0.000061
    20 H     0.000056 -0.000002 -0.000016
    21 H     0.000088  0.000017  0.000047
 ----------------------------------------



 =======================================================================
 Electrostatic potential at the Nuclei due to electrons and other nuclei
 =======================================================================
  
         Atom                  Potential
         ----                  ---------
     1)   C                  14.73050752
     2)   O                  22.36336229
     3)   C                  14.73704578
     4)   C                  14.76483105
     5)   C                  14.78299285
     6)   C                  14.78697877
     7)   C                  14.76943332
     8)   C                  14.78316540
     9)   C                  14.76277134
    10)   Br                180.54143765
    11)   H                   1.09975575
    12)   H                   1.09978810
    13)   H                   1.09878722
    14)   H                   1.10653088
    15)   H                   1.12327458
    16)   H                   1.12058513
    17)   H                   1.12408364
    18)   H                   1.12702865
    19)   H                   1.11628984
    20)   H                   1.11628755
    21)   H                   1.11905463
 Mulliken charges used for AMS results%charges...


    =====================
     CALCULATION RESULTS
    =====================

Energy (hartree)            -4.20973886

Gradients (hartree/bohr)
  Index   Atom            d/dx            d/dy            d/dz
      1      C    0.0000277353   -0.0000105751   -0.0000103055
      2      O   -0.0000023533   -0.0000016744    0.0000257696
      3      C    0.0000029518    0.0000185620    0.0000038746
      4      C    0.0000071777    0.0000021228   -0.0000204693
      5      C    0.0000004520    0.0000044706   -0.0000260666
      6      C   -0.0000494887   -0.0000145409   -0.0000084487
      7      C    0.0000059163    0.0000180146    0.0000194063
      8      C    0.0000160137   -0.0000121648    0.0000192675
      9      C   -0.0000037115    0.0000032505    0.0000486758
     10     Br   -0.0000520373    0.0000313124    0.0000617695
     11      H    0.0000180818   -0.0000121898   -0.0000259860
     12      H    0.0000449012    0.0000022355    0.0000157410
     13      H    0.0000170643   -0.0000014524   -0.0000004446
     14      H    0.0000465606   -0.0000140571   -0.0000299409
     15      H   -0.0000326498   -0.0000163712   -0.0000408395
     16      H   -0.0000086585   -0.0000209868   -0.0000518408
     17      H   -0.0000346808   -0.0000002365   -0.0000203786
     18      H   -0.0000584058    0.0000004663   -0.0000084366
     19      H   -0.0000212238    0.0000161298    0.0000323539
     20      H    0.0000296404   -0.0000011368   -0.0000085693
     21      H    0.0000467144    0.0000088214    0.0000248684


--------------
Atomic charges
--------------
  Index   Atom    Charge
      1      C    0.9730
      2      O   -0.5443
      3      C    0.3246
      4      C    0.1524
      5      C    0.4203
      6      C    0.4297
      7      C    0.1862
      8      C    0.4290
      9      C    0.1158
     10     Br   -0.2456
     11      H   -0.2027
     12      H   -0.2052
     13      H   -0.2384
     14      H   -0.1908
     15      H   -0.1990
     16      H   -0.1985
     17      H   -0.2002
     18      H   -0.1986
     19      H   -0.1854
     20      H   -0.2137
     21      H   -0.2083


Dipole moment vector    (Debye):    -2.47413427   -0.49402674   -2.04060517
              magnitude (Debye):     3.24491483


-----------------------
Molecular orbitals info
-----------------------
n orbitals:              411
n spin:                    1

Note: only printing virtual orbitals with
      energy smaller than HOMO + 100. eV

HOMO (eV):              -4.9346
LUMO (eV):              -0.7539
HOMO-LUMO gap (eV):      4.1807

   Index   Energy (eV)    Occupation
     268       94.8383         0.000       
     267       94.1714         0.000       
     266       93.9649         0.000       
     265       93.1235         0.000       
     264       92.5966         0.000       
     263       92.2897         0.000       
     262       91.6739         0.000       
     261       91.3187         0.000       
     260       90.3257         0.000       
     259       89.8097         0.000       
     258       89.4331         0.000       
     257       88.9528         0.000       
     256       88.5237         0.000       
     255       87.3980         0.000       
     254       86.9900         0.000       
     253       85.9869         0.000       
     252       85.6613         0.000       
     251       84.8837         0.000       
     250       84.5140         0.000       
     249       83.8528         0.000       
     248       82.9867         0.000       
     247       82.6166         0.000       
     246       81.6860         0.000       
     245       80.9568         0.000       
     244       80.7231         0.000       
     243       80.2315         0.000       
     242       79.8487         0.000       
     241       78.9557         0.000       
     240       78.8311         0.000       
     239       78.3050         0.000       
     238       77.8331         0.000       
     237       77.4216         0.000       
     236       77.3760         0.000       
     235       77.1386         0.000       
     234       76.9335         0.000       
     233       76.5025         0.000       
     232       76.3034         0.000       
     231       76.0695         0.000       
     230       75.7852         0.000       
     229       75.1187         0.000       
     228       74.8283         0.000       
     227       74.5646         0.000       
     226       74.3613         0.000       
     225       73.6156         0.000       
     224       73.1806         0.000       
     223       72.0848         0.000       
     222       71.7061         0.000       
     221       70.4449         0.000       
     220       69.5388         0.000       
     219       68.4332         0.000       
     218       67.4713         0.000       
     217       67.2182         0.000       
     216       66.0872         0.000       
     215       65.2241         0.000       
     214       64.5617         0.000       
     213       64.1147         0.000       
     212       63.2541         0.000       
     211       62.1136         0.000       
     210       61.8666         0.000       
     209       61.1973         0.000       
     208       60.4008         0.000       
     207       59.5103         0.000       
     206       59.1460         0.000       
     205       58.9467         0.000       
     204       58.4535         0.000       
     203       57.4696         0.000       
     202       57.2489         0.000       
     201       56.7504         0.000       
     200       56.2909         0.000       
     199       55.4406         0.000       
     198       55.0186         0.000       
     197       54.3170         0.000       
     196       53.9709         0.000       
     195       53.5109         0.000       
     194       52.7259         0.000       
     193       51.8597         0.000       
     192       51.6552         0.000       
     191       50.9599         0.000       
     190       50.4641         0.000       
     189       49.6554         0.000       
     188       49.4192         0.000       
     187       48.1634         0.000       
     186       48.0678         0.000       
     185       47.2866         0.000       
     184       46.8338         0.000       
     183       46.4270         0.000       
     182       45.7683         0.000       
     181       45.2841         0.000       
     180       45.0255         0.000       
     179       44.0824         0.000       
     178       43.7003         0.000       
     177       43.3477         0.000       
     176       42.9212         0.000       
     175       41.9447         0.000       
     174       41.8176         0.000       
     173       41.2991         0.000       
     172       40.5097         0.000       
     171       40.3735         0.000       
     170       39.8715         0.000       
     169       39.5321         0.000       
     168       38.9071         0.000       
     167       38.0654         0.000       
     166       37.8624         0.000       
     165       37.4758         0.000       
     164       36.9320         0.000       
     163       36.7826         0.000       
     162       36.1710         0.000       
     161       35.6344         0.000       
     160       35.3919         0.000       
     159       34.9459         0.000       
     158       34.5936         0.000       
     157       34.4377         0.000       
     156       33.7553         0.000       
     155       33.7140         0.000       
     154       32.7759         0.000       
     153       32.6050         0.000       
     152       32.0048         0.000       
     151       31.9477         0.000       
     150       31.8632         0.000       
     149       31.4204         0.000       
     148       31.0112         0.000       
     147       30.6218         0.000       
     146       29.7360         0.000       
     145       29.4939         0.000       
     144       29.1434         0.000       
     143       28.7728         0.000       
     142       28.2633         0.000       
     141       27.9691         0.000       
     140       27.5852         0.000       
     139       27.3970         0.000       
     138       26.8090         0.000       
     137       26.6674         0.000       
     136       26.2238         0.000       
     135       25.9610         0.000       
     134       25.5182         0.000       
     133       25.4063         0.000       
     132       25.3279         0.000       
     131       24.7588         0.000       
     130       24.2822         0.000       
     129       24.0632         0.000       
     128       23.8430         0.000       
     127       23.7079         0.000       
     126       23.4365         0.000       
     125       22.4571         0.000       
     124       21.6209         0.000       
     123       21.1091         0.000       
     122       20.4366         0.000       
     121       20.2705         0.000       
     120       19.9724         0.000       
     119       19.3812         0.000       
     118       18.6801         0.000       
     117       18.3758         0.000       
     116       17.1552         0.000       
     115       16.6254         0.000       
     114       16.5524         0.000       
     113       15.4834         0.000       
     112       15.2159         0.000       
     111       14.8909         0.000       
     110       14.1991         0.000       
     109       13.8576         0.000       
     108       12.9702         0.000       
     107       12.6881         0.000       
     106       12.5332         0.000       
     105       12.1441         0.000       
     104       11.9859         0.000       
     103       11.6823         0.000       
     102       11.4156         0.000       
     101       11.2934         0.000       
     100       11.2267         0.000       
      99       10.9192         0.000       
      98       10.6818         0.000       
      97       10.3041         0.000       
      96       10.1686         0.000       
      95        9.7521         0.000       
      94        9.6889         0.000       
      93        9.4557         0.000       
      92        9.3017         0.000       
      91        9.0652         0.000       
      90        8.8019         0.000       
      89        8.4684         0.000       
      88        8.2023         0.000       
      87        8.1229         0.000       
      86        7.6567         0.000       
      85        7.1524         0.000       
      84        6.9993         0.000       
      83        6.6955         0.000       
      82        6.4928         0.000       
      81        6.1797         0.000       
      80        6.0616         0.000       
      79        5.9194         0.000       
      78        5.8178         0.000       
      77        5.3762         0.000       
      76        5.0650         0.000       
      75        4.8984         0.000       
      74        4.7675         0.000       
      73        4.6142         0.000       
      72        4.3470         0.000       
      71        4.1005         0.000       
      70        3.7186         0.000       
      69        3.5912         0.000       
      68        3.3633         0.000       
      67        3.2031         0.000       
      66        2.7117         0.000       
      65        2.5472         0.000       
      64        2.0555         0.000       
      63        1.8890         0.000       
      62        1.6210         0.000       
      61        1.4087         0.000       
      60        1.2438         0.000       
      59        1.0695         0.000       
      58        0.7736         0.000       
      57        0.6384         0.000       
      56        0.4956         0.000       
      55        0.0813         0.000       
      54       -0.3485         0.000       
      53       -0.5037         0.000       
      52       -0.7539         0.000 < LUMO
      51       -4.9346         2.000 < HOMO
      50       -6.4364         2.000       
      49       -7.0202         2.000       
      48       -7.2283         2.000       
      47       -7.7663         2.000       
      46       -8.0548         2.000       
      45       -8.2445         2.000       
      44       -8.5351         2.000       
      43       -8.6419         2.000       
      42       -8.8100         2.000       
      41       -9.1484         2.000       
      40       -9.5410         2.000       
      39      -10.3157         2.000       
      38      -10.9194         2.000       
      37      -10.9895         2.000       
      36      -11.4291         2.000       
      35      -11.9058         2.000       
      34      -12.2719         2.000       
      33      -13.1785         2.000       
      32      -13.9788         2.000       
      31      -14.2593         2.000       
      30      -16.5994         2.000       
      29      -17.5324         2.000       
      28      -17.7386         2.000       
      27      -18.4168         2.000       
      26      -20.0877         2.000       
      25      -21.9960         2.000       
      24      -26.4176         2.000       
      23      -65.3976         2.000       
      22      -65.4009         2.000       
      21      -65.6429         2.000       
      20      -65.6570         2.000       
      19      -65.7561         2.000       
      18     -171.9683         2.000       
      17     -171.9876         2.000       
      16     -172.3254         2.000       
      15     -235.8656         2.000       
      14     -269.9682         2.000       
      13     -270.0750         2.000       
      12     -270.1105         2.000       
      11     -270.4363         2.000       
      10     -270.5604         2.000       
       9     -270.7438         2.000       
       8     -271.4058         2.000       
       7     -271.4985         2.000       
       6     -512.3517         2.000       
       5    -1526.0796         2.000       
       4    -1526.0860         2.000       
       3    -1526.1985         2.000       
       2    -1729.2109         2.000       
       1   -13295.7064         2.000       

AMS application finished. Exiting.
NORMAL TERMINATION
     Total cpu time:     761.34
  Total system time:       2.45
 Total elapsed time:     768.05
NORMAL TERMINATION
