srun: Job 662414 step creation temporarily disabled, retrying (Requested nodes are busy)
srun: Job 662414 step creation still disabled, retrying (Requested nodes are busy)
srun: Job 662414 step creation still disabled, retrying (Requested nodes are busy)
srun: Job 662414 step creation still disabled, retrying (Requested nodes are busy)
srun: Job 662414 step creation still disabled, retrying (Requested nodes are busy)
srun: Job 662414 step creation still disabled, retrying (Requested nodes are busy)
srun: Job 662414 step creation still disabled, retrying (Requested nodes are busy)
srun: Job 662414 step creation still disabled, retrying (Requested nodes are busy)
srun: Job 662414 step creation still disabled, retrying (Requested nodes are busy)
srun: Step created for StepId=662414.10

 *******************************************************************************
 *                                                                             *
 *  --------------------------------                                           *
 *   Amsterdam Modeling Suite (AMS)              2026.103                      *
 *  --------------------------------                                           *
 *                                               r260501 2026-05-01 873454b5   *
 *                                                                             *
 *                                                                             *
 *                              =================                              *
 *                              |               |                              *
 *                              |     A M S     |                              *
 *                              |               |                              *
 *                              =================                              *
 *                                                                             *
 *                                                                             *
 *   Online information and documentation:  https://www.scm.com/support/       *
 *   E-mail:  support@scm.com   info@scm.com                                   *
 *                                                                             *
 *   Scientific publications using AMS results must be properly referenced     *
 *   See the User Manuals (or the web site) for recommended citations          *
 *   The terms and conditions of the End User License Agreement apply to       *
 *   the use of AMS, https://www.scm.com/license-terms/                        *
 *                                                                             *
 **********************  x86_64_linux_intel / intelmpi  ************************
 
 Licensed to: Jong-June Jeon / University of Seoul 2026-06-02 13:44:15
 SCM User ID: u30731
  
 AMS 2026.103  RunTime: Jun03-2026 11:50:36  ShM Nodes: 1  Procs: 1

 AMS jobname: c1_fragA_ts
 AMS jobid  : 550979198

 Start   directory: /gpfs/home1/yeseo1ee/projects/eda-asm-prediction/ADF_800/adf_outputs/batch_003/qmrxn20_e2_A_D_E_C_C_B/
 Results directory: /gpfs/home1/yeseo1ee/projects/eda-asm-prediction/ADF_800/adf_outputs/batch_003/qmrxn20_e2_A_D_E_C_C_B/c1_fragA_ts.results/
 Scratch directory: /tmp/amstmp_c1_fragA_ts_kid0.550979198/

 RNG seed: -119967359 -1760879629 1351577036 1495512136 85842416 1069986675 -945131009 -129671033



                      ************************************************************************
                      *  ADF 2026.103  RunTime: Jun03-2026 11:50:36  ShM Nodes: 1  Procs: 1  *
                      ************************************************************************
  

       ****************************
       * SINGLE POINT CALCULATION *
       ****************************

--------
Geometry
--------
Formula: FH
Atoms
  Index Symbol   x (angstrom)   y (angstrom)   z (angstrom)
      1      F    -2.51236197     0.41390054     1.66181641
      2      H    -1.41246126    -0.04756908     1.43360972

Total System Charge             -1.00000


----------------
ADF Engine Input
----------------
 
   Basis
     Type TZ2P
     Core None
   End
   XC
     GGA BLYP
     Dispersion GRIMME3 BJDAMP
   End
   Symmetry NOSYM
   NumericalQuality Normal
   Unrestricted No
   SCF
     Iterations 200
     Converge 1.0e-6
   End
   Save TAPE21
 

 Title: *** (NO TITLE) ***

 *** adf ***



 ===========================
 A T T A C H E D   F I L E S
 ===========================
  



 ===============================
 M O D E L   P A R A M E T E R S
 ===============================
  
 DENSITY FUNCTIONAL POTENTIAL (scf)
    LDA:                               Exchange only                           == Not Default ==
    Gradient Corrections:              Becke88 LYP                             == Not Default ==

 SPIN  (restricted / unrestr.)
    Molecule:                          Restricted                               
    Fragments:                         Restricted                               

 OTHER ASPECTS
    Relativistic Corrections:          scalar (ZORA,MAPA)                       

    Nuclear Charge Density Model:      Point Charge Nuclei                      
    Core Treatment:                    Frozen Orbital(s)                        

    Hyperfine or Zeeman Interaction:   ---                                      

 Settings for Grimme D3 dispersion correction

      damping                        BJ
      s6                          1.000
      s8                          2.700
      a1                          0.430
      a2                          4.236

 Other (technical) parameters

      alpha                      14.000
      version                         4
 
 WARNING: Atom coordinates do not satisfy full symmetry (probably due to orientation).


 Fragment File(s)
 ----------------
 F:
         file : /gpfs/home1/yeseo1ee/projects/eda-asm-prediction/ADF_800/adf_outputs/batch_003/qmrxn20_e2_A_D_E_C_C_B/c1_fragA_ts.results/t21.CCE1280.F
         jobid: 0
         title: Fluorine (TZ2P)
 H:
         file : /gpfs/home1/yeseo1ee/projects/eda-asm-prediction/ADF_800/adf_outputs/batch_003/qmrxn20_e2_A_D_E_C_C_B/c1_fragA_ts.results/t21.6F35CCAB.H
         jobid: 0
         title: Hydrogen (TZ2P)



 ===============
 G E O M E T R Y  ***  Linear Molecule  ***
 ===============
  

 ATOMS
 =====                            X Y Z                    CHARGE
                                (Angstrom)             Nucl     +Core       At.Mass
                       --------------------------    ----------------       -------
    1  F              -2.5124    0.4139    1.6618      9.00      9.00       18.9984
    2  H              -1.4125   -0.0476    1.4336      1.00      1.00        1.0078


 FRAGMENTS
 =========                                     Atoms in this Fragment     Cart. coord.s (Angstrom)
                                               -------------------------------------------------------
    1  F                                                 1  F           -2.5124    0.4139    1.6618
    2  H                                                 2  H           -1.4125   -0.0476    1.4336


 Interatomic Distance Matrix (Angstrom)
 --------------------------------------

   1)     0.000
   2)     1.214   0.000



 =====================================
 S Y M M E T R Y ,   E L E C T R O N S
 =====================================
  
 Symmetry: NOSYM

 Irreducible Representations, including subspecies
 -------------------------------------------------
 A


 Configuration of Valence Electrons
 ==================================
 ( determined in the SCF procedure )

 Total:   11

 ===============
 W A R N I N G :
 ===============

 The number of electrons does not correspond to doubly occupied orbitals,
 i.e. there would be one orbital with 0.5-alpha and 0.5-beta electrons.

 Normally, this corresponds to a doublet that should be treated within
 the UNRESTRICTED framework. For example, for a doublet:

   CHARGE  -1.0 1.0
   Unrestricted

 See the online manual (http://www.scm.com) for more information on
 how to use the UNRESTRICTED framework.

 If you are definitely certain that for this job the restricted open-shell
 is appropriate, you can overcome this warning by placing on input:
   ALLOW ROKS

 In case of doubt, contact support@scm.com with this problem.

 Net Charge: -1 (Nuclei minus Electrons)

 Aufbau principle for MO occupations will be applied through SCF cycle no.     100
 Thereafter, the program will assign electrons to MOs that are spatially
 similar to the occupied MOs in a "reference" cycle ("KeepOrbitals").
 The reference cycle is always the PREVIOUS cycle: it will evolve with
 the SCF procedure.
 ***************************************************************************************************



                                      ****************************************
                                      *  B U I L D : (Fragments, Functions)  *
                                      ****************************************
  



 =======
 S F O s  ***  (Symmetrized Fragment Orbitals)  ***
 =======
  
 SFOs are linear combinations of (valence) Fragment Orbitals (FOs), such that the SFOs transform as the
 irreducible representations of the (molecular) symmetry group. Each SFO is therefore characterized by
 an irrep of the molecule and by a few (or only one) generating FOs.
 The SFOs constitute a symmetry-adapted basis for the Fock matrix. The MO eigenvector coefficients in
 this basis provide a direct interpretation of the MOs in terms of Frontier Orbital Theory.

 The SFOs are combined with auxiliary Core Functions (CFs) to ensure orthogonalization on the (frozen)
 Core Orbitals (COs). The Core-orthogonalized SFOs (CSFOs) constitute the true Fock basis.

 The FOs, and hence also the (C)SFOs are combinations of the elementary basis functions (BAS). The basis
 functions that participate in the description of the SFOs depend on the irrep. The indices of the
 involved functions are printed below for each irrep.
 (The complete list of primitive basis functions is printed in another section)

 Total nr. of (C)SFOs (summation over all irreps) :    37

 NOTE: a (C)SFO that is defined as a combination of more than one FO is usually NOT normalized.



                                       === A ===
 Nr. of SFOs :   37
 Cartesian basis functions that participate in this irrep (total number =    42) :
      1     2     3     4     5     6     9    12     7    10
     13     8    11    14    15    16    17    18    19    20
     21    22    23    24    25    26    27    28    29    30
     31    32    33    34    35    36    37    38    39    40
     41    42

    SFO  (index         Fragment          Generating    Expansion in Fragment Orbitals
  indx  incl.CFs)   Occup   Orb.Energy   FragmentType  Coeff.   Orbital     on Fragment
 --------------------------------------------------------------------------------------
     1       1      2.000     -24.402 au  F             1.00      1 S               1
                        (    -664.014 eV)
     2       2      2.000      -1.095 au  F             1.00      2 S               1
                        (     -29.785 eV)
     3       3       --         0.023 au  F             1.00      3 S               1
                        (       0.624 eV)
     4       4       --         1.576 au  F             1.00      4 S               1
                        (      42.880 eV)
     5       5       --        47.803 au  F             1.00      5 S               1
                        (    1300.785 eV)
     6       6      1.667      -0.409 au  F             1.00      1 P:x             1
                        (     -11.127 eV)
     7       7       --         0.428 au  F             1.00      2 P:x             1
                        (      11.654 eV)
     8       8       --         4.556 au  F             1.00      3 P:x             1
                        (     123.977 eV)
     9       9      1.667      -0.409 au  F             1.00      1 P:y             1
                        (     -11.127 eV)
    10      10       --         0.428 au  F             1.00      2 P:y             1
                        (      11.654 eV)
    11      11       --         4.556 au  F             1.00      3 P:y             1
                        (     123.977 eV)
    12      12      1.667      -0.409 au  F             1.00      1 P:z             1
                        (     -11.127 eV)
    13      13       --         0.428 au  F             1.00      2 P:z             1
                        (      11.654 eV)
    14      14       --         4.556 au  F             1.00      3 P:z             1
                        (     123.977 eV)
    15      15       --         1.117 au  F             1.00      1 D:z2            1
                        (      30.390 eV)
    16      16       --         1.117 au  F             1.00      1 D:x2-y2         1
                        (      30.390 eV)
    17      17       --         1.117 au  F             1.00      1 D:xy            1
                        (      30.390 eV)
    18      18       --         1.117 au  F             1.00      1 D:xz            1
                        (      30.390 eV)
    19      19       --         1.117 au  F             1.00      1 D:yz            1
                        (      30.390 eV)
    20      20       --         3.416 au  F             1.00      1 F:z3            1
                        (      92.949 eV)
    21      21       --         3.416 au  F             1.00      1 F:z             1
                        (      92.949 eV)
    22      22       --         3.416 au  F             1.00      1 F:xyz           1
                        (      92.949 eV)
    23      23       --         3.416 au  F             1.00      1 F:z2x           1
                        (      92.949 eV)
    24      24       --         3.416 au  F             1.00      1 F:z2y           1
                        (      92.949 eV)
    25      25       --         3.416 au  F             1.00      1 F:x             1
                        (      92.949 eV)
    26      26       --         3.416 au  F             1.00      1 F:y             1
                        (      92.949 eV)
    27      27      1.000      -0.240 au  H             1.00      1 S               2
                        (      -6.532 eV)
    28      28       --         0.088 au  H             1.00      2 S               2
                        (       2.394 eV)
    29      29       --         1.502 au  H             1.00      3 S               2
                        (      40.869 eV)
    30      30       --         0.406 au  H             1.00      1 P:x             2
                        (      11.051 eV)
    31      31       --         0.406 au  H             1.00      1 P:y             2
                        (      11.051 eV)
    32      32       --         0.406 au  H             1.00      1 P:z             2
                        (      11.051 eV)
    33      33       --         2.569 au  H             1.00      1 D:z2            2
                        (      69.917 eV)
    34      34       --         2.569 au  H             1.00      1 D:x2-y2         2
                        (      69.917 eV)
    35      35       --         2.569 au  H             1.00      1 D:xy            2
                        (      69.917 eV)
    36      36       --         2.569 au  H             1.00      1 D:xz            2
                        (      69.917 eV)
    37      37       --         2.569 au  H             1.00      1 D:yz            2
                        (      69.917 eV)



 ================================
 (Slater-type)  F U N C T I O N S  ***  (Basis and Fit)  ***
 ================================
  

 Atom Type    1  (F)
 ==============

 Valence Basis Sets:  10
 -----------------------
   1 S   10.880000
   1 S    7.700000
   2 S    3.240000
   2 S    1.940000
   2 S    0.740000
   2 P    4.540000
   2 P    2.300000
   2 P    1.240000
   3 D    2.000000
   4 F    3.000000

 Atom Type    2  (H)
 ==============

 Valence Basis Sets:   5
 -----------------------
   1 S    0.690000
   1 S    0.920000
   1 S    1.580000
   2 P    1.250000
   3 D    2.500000


 BAS: List of all Elementary Cartesian Basis Functions
 =====================================================

 The numbering in the list below (to the right of the function characteristics) is referred
 to in print-outs of MO eigenvectors and Mulliken populations in the BAS representation
 (as contrasted to the SFO representation).

 Notes:
 1. The functions are characterized by a polynomial prefactor (powers of x,y,z and r) and
    an exponential decay factor alpha.
 2. Since the basis sets are specific for an atom TYPE, the individual functions occur on
    all atoms of that type.
 3. The word 'Core' in the left margin signals that it is a Core Function (CF) : not a
    degree of freedom in the valence set, but only used to ensure orthogonalization of
    the other valence basis functions on the frozen Core Orbitals.


 (power of) X  Y  Z  R     Alpha  on Atom
            ==========     =====     ==========

 F                                    1
                                  ---------------------------------------------------------------------------
            0  0  0  0    10.880      1
            0  0  0  0     7.700      2
            0  0  0  1     3.240      3
            0  0  0  1     1.940      4
            0  0  0  1     0.740      5
            1  0  0  0     4.540      6
            0  1  0  0     4.540      7
            0  0  1  0     4.540      8
            1  0  0  0     2.300      9
            0  1  0  0     2.300     10
            0  0  1  0     2.300     11
            1  0  0  0     1.240     12
            0  1  0  0     1.240     13
            0  0  1  0     1.240     14
            2  0  0  0     2.000     15
            1  1  0  0     2.000     16
            1  0  1  0     2.000     17
            0  2  0  0     2.000     18
            0  1  1  0     2.000     19
            0  0  2  0     2.000     20
            3  0  0  0     3.000     21
            2  1  0  0     3.000     22
            2  0  1  0     3.000     23
            1  2  0  0     3.000     24
            1  1  1  0     3.000     25
            1  0  2  0     3.000     26
            0  3  0  0     3.000     27
            0  2  1  0     3.000     28
            0  1  2  0     3.000     29
            0  0  3  0     3.000     30

 H                                    2
                                  ---------------------------------------------------------------------------
            0  0  0  0     0.690     31
            0  0  0  0     0.920     32
            0  0  0  0     1.580     33
            1  0  0  0     1.250     34
            0  1  0  0     1.250     35
            0  0  1  0     1.250     36
            2  0  0  0     2.500     37
            1  1  0  0     2.500     38
            1  0  1  0     2.500     39
            0  2  0  0     2.500     40
            0  1  1  0     2.500     41
            0  0  2  0     2.500     42

 Total number of charge fitting functions (nprimf)       135
 Total number of Cartesian basis functions (naos)         42
 Total number of Cartesian core functions  (ncos)          0

 ***************************************************************************************************



                                              ***********************
                                              *  T E C H N I C A L  *
                                              ***********************
  



 =============================================================
 P A R A L L E L I Z A T I O N  and  V E C T O R I Z A T I O N
 =============================================================
  
 Nr of parallel processes:                                1
 Maximum vector length in NumInt loops:                 128



 =====================
 S C F   U P D A T E S
 =====================
  
 Max. nr. of cycles:                               200
 Convergence criterion:                              0.0000010000
   secondary criterion:                              0.0010000000

 Mix parameter (when DIIS does not apply):           0.2000000000
 Mixed ADIIS+SDIIS will be used                  
    Max number of expansion vectors:                10
    Pure ADIIS when Max([F,P]) is above              0.1000000000
    Pure SDIIS when Max([F,P]) is below              0.0010000000
 Automatic ElectronSmearing (in case of problematic SCF convergence) disabled



 =================
 P R E C I S I O N  ***  (General: NumInt, NeglectFunctionTails, ...)  ***
 =================
  

 NumInt:           Target precision:                 4.0000000000
 -------           Initial precision:                4.0000000000
                   Min. precision (optimization):    4.0000000000

 Neglect Functions:          Basis functions:        0.1000000000E-05
 ------------------          Fit functions:          0.1000000000E-05



 ===========================
 L I N E A R   S C A L I N G
 ===========================
  

 Cut-off radii density fit:                        0.1000000000E-07
 Overlap cut-off criterion AO matrix elements:     0.1000000000E-05
 Cut-offs for Coulomb potential and fitted density:0.1000000000E-07
 Cut-off criterion for Coulomb multipole terms:    0.1000000000E-07
 Progressive Convergence parameter:                 0.000000000    
 ***************************************************************************************************



                                            ***************************
                                            *  C O M P U T A T I O N  *
                                            ***************************
  

 Number of elements of the density matrix on this node (used, total):       903       903



 ===========================================
 Numerical Integration : Fuzzy Cells (Becke)
 ===========================================
  
 Becke grid quality: NORMAL         
  
 Lebedev angular grid order:             min:  11 max:  23
 Nr. of radial points:                   min:  46 max:  55

 Total nr. of points:      13390
 Nr. of blocks:              105
 Block length:               128
 Nr. of dummy points:         50


 Test of Precision of the Numerical Integration Grid
 ===================================================

 Integral of the Total Core Density:                   0.00000000000000



 ========================
 Density Fitting (zlmFit)
 ========================
  
 ZlmFit Fit Quality: NORMAL         
  
 Max L-expansion:                        min:   6 max:   7
 Nr. of radial interpolation points:     min:  39 max:  51



 =====
 S C F  ***  ScaSCF  ***
 =====
  
 Initial density matrix is calculated as sum of fragments

 CYCLE    1
 SCF Error: norm([F,P])=      0.926222289218, max([F,P])=      0.813445938015
 orbitals (Q,E):
 ---------------
 A :1...16           ( 2.00   -24.4295)  ( 2.00    -1.1380)  ( 2.00    -0.5091)  ( 2.00    -0.4357)
                     ( 2.00    -0.4357)  ( 1.00    -0.1161)  ( 0.00     0.0469)  ( 0.00     0.1217)
                     ( 0.00     0.3464)  ( 0.00     0.3464)  ( 0.00     0.5913)  ( 0.00     0.5914)
                     ( 0.00     0.5995)  ( 0.00     0.8960)  ( 0.00     1.0829)  ( 0.00     1.0829)

 CYCLE    2
  SDIIS (wt  0.000):  0.3625  0.6375
 A-DIIS (wt  1.000):  0.5637  0.4363
  DIIS coefficients:  0.5637  0.4363
 SCF Error: norm([F,P])=      0.695338378051, max([F,P])=      0.293709364392
 orbitals (Q,E):
 ---------------
 A :1...7            ( 2.00   -23.9901)  ( 2.00    -0.8378)  ( 2.00    -0.2425)  ( 2.00    -0.1462)
                     ( 2.00    -0.1462)  ( 1.00     0.0447)  ( 0.00     0.1604)

 CYCLE    3
  SDIIS (wt  0.000):  0.0122  0.3399  0.6480
 A-DIIS (wt  1.000):  0.3028  0.1796  0.5176
  DIIS coefficients:  0.3028  0.1796  0.5176
 SCF Error: norm([F,P])=      0.370943997325, max([F,P])=      0.140586961307
 orbitals (Q,E):
 ---------------
 A :1...7            ( 2.00   -24.1395)  ( 2.00    -0.8532)  ( 2.00    -0.2388)  ( 2.00    -0.1565)
                     ( 2.00    -0.1565)  ( 1.00     0.0852)  ( 0.00     0.1978)

 CYCLE    4
  SDIIS (wt  0.000): -0.1153  0.3846  0.7307
 A-DIIS (wt  1.000):  0.0000  0.4822  0.5178
  DIIS coefficients:  0.0000  0.4822  0.5178
 SCF Error: norm([F,P])=      0.302958677790, max([F,P])=      0.121989607748
 orbitals (Q,E):
 ---------------
 A :1...7            ( 2.00   -23.9814)  ( 2.00    -0.7239)  ( 2.00    -0.1232)  ( 2.00    -0.0296)
                     ( 2.00    -0.0296)  ( 1.00     0.1574)  ( 0.00     0.2604)

 CYCLE    5
  SDIIS (wt  0.853):  0.0939  0.0625 -0.0528  0.8965
 A-DIIS (wt  0.147):  0.0000  0.0000  0.0000  1.0000
  DIIS coefficients:  0.0801  0.0533 -0.0451  0.9117
 SCF Error: norm([F,P])=      0.034201918512, max([F,P])=      0.015533612287
 orbitals (Q,E):
 ---------------
 A :1...7            ( 2.00   -23.9939)  ( 2.00    -0.7400)  ( 2.00    -0.1392)  ( 2.00    -0.0443)
                     ( 2.00    -0.0442)  ( 1.00     0.1493)  ( 0.00     0.2556)

 CYCLE    6
  SDIIS (wt  0.985): -0.0047  0.0129  0.0124  0.0564  0.9230
 A-DIIS (wt  0.015):  0.0000  0.0000  0.0000  0.0000  1.0000
  DIIS coefficients: -0.0047  0.0127  0.0122  0.0556  0.9242
 SCF Error: norm([F,P])=      0.006555688733, max([F,P])=      0.002515271173
 orbitals (Q,E):
 ---------------
 A :1...7            ( 2.00   -23.9919)  ( 2.00    -0.7392)  ( 2.00    -0.1385)  ( 2.00    -0.0436)
                     ( 2.00    -0.0436)  ( 1.00     0.1496)  ( 0.00     0.2555)

 CYCLE    7
  SDIIS (wt  1.000):  0.0001  0.0015 -0.0017  0.0067  0.1927  0.8006
  DIIS coefficients:  0.0001  0.0015 -0.0017  0.0067  0.1927  0.8006
 SCF Error: norm([F,P])=      0.000395520117, max([F,P])=      0.000169665105
 orbitals (Q,E):
 ---------------
 A :1...7            ( 2.00   -23.9920)  ( 2.00    -0.7393)  ( 2.00    -0.1385)  ( 2.00    -0.0437)
                     ( 2.00    -0.0436)  ( 1.00     0.1495)  ( 0.00     0.2555)

 CYCLE    8
  SDIIS (wt  1.000):  0.0001  0.0001 -0.0007  0.0001  0.0183  0.1104  0.8716
  DIIS coefficients:  0.0001  0.0001 -0.0007  0.0001  0.0183  0.1104  0.8716
 SCF Error: norm([F,P])=      0.000035276674, max([F,P])=      0.000016758715
 orbitals (Q,E):
 ---------------
 A :1...7            ( 2.00   -23.9920)  ( 2.00    -0.7393)  ( 2.00    -0.1386)  ( 2.00    -0.0437)
                     ( 2.00    -0.0436)  ( 1.00     0.1495)  ( 0.00     0.2555)

 CYCLE    9
  SDIIS (wt  1.000): -0.0000 -0.0000  0.0000 -0.0002  0.0002  0.0081  0.1419  0.8500
  DIIS coefficients: -0.0000 -0.0000  0.0000 -0.0002  0.0002  0.0081  0.1419  0.8500
 SCF Error: norm([F,P])=      0.000013467228, max([F,P])=      0.000005426924
 orbitals (Q,E):
 ---------------
 A :1...7            ( 2.00   -23.9920)  ( 2.00    -0.7393)  ( 2.00    -0.1386)  ( 2.00    -0.0437)
                     ( 2.00    -0.0436)  ( 1.00     0.1495)  ( 0.00     0.2555)

 CYCLE   10
  SDIIS (wt  1.000): -0.0000 -0.0000  0.0000  0.0000 -0.0001 -0.0006 -0.0021  0.0410  0.9617
  DIIS coefficients: -0.0000 -0.0000  0.0000  0.0000 -0.0001 -0.0006 -0.0021  0.0410  0.9617
 SCF Error: norm([F,P])=      0.000001046865, max([F,P])=      0.000000413953
 orbitals (Q,E):
 ---------------
 A :1...7            ( 2.00   -23.9920)  ( 2.00    -0.7393)  ( 2.00    -0.1386)  ( 2.00    -0.0437)
                     ( 2.00    -0.0436)  ( 1.00     0.1495)  ( 0.00     0.2555)

 SCF CONVERGED

 CYCLE   11
 ***************************************************************************************************



                                                *******************
                                                *  R E S U L T S  *
                                                *******************
  
 *** Using FIT density in Focky
  SDIIS (wt  1.000):  0.0000  0.0000 -0.0000 -0.0000 -0.0004 -0.0007  0.0422  0.9589
  DIIS coefficients:  0.0000  0.0000 -0.0000 -0.0000 -0.0004 -0.0007  0.0422  0.9589
 SCF Error: norm([F,P])=      0.000000026052, max([F,P])=      0.000000010548

 Scaled ZORA Orbital Energies, per Irrep and Spin:
 =================================================
                        Occup              E (au)              E (eV)       Diff (eV) with prev. cycle
                        -----      --------------------        ------       --------------------------
 A
               1        2.000     -0.23992006616567E+02      -652.856              -2.78E-07
               2        2.000     -0.73926718772955E+00       -20.116              -2.40E-07
               3        2.000     -0.13855588076023E+00        -3.770              -2.47E-07
               4        2.000     -0.43655216728587E-01        -1.188              -2.05E-07
               5        2.000     -0.43621123982514E-01        -1.187              -2.05E-07
               6        1.000      0.14953085897975E+00         4.069              -1.14E-07
               7        0.000      0.25548568972131E+00         6.952
               8        0.000      0.34980511202360E+00         9.519
               9        0.000      0.64397307004651E+00        17.523
              10        0.000      0.64399369894611E+00        17.524
              11        0.000      0.88067607886522E+00        23.964
              12        0.000      0.88070652871335E+00        23.965
              13        0.000      0.89149462116512E+00        24.259
              14        0.000      0.11804221966708E+01        32.121
              15        0.000      0.13911174449256E+01        37.854
              16        0.000      0.14271732269085E+01        38.835


 Partially Occupied:
               6 A                 0.14953085897975E+00
  
 HOMO :        5 A                -0.43621123982514E-01
 LUMO :        7 A                 0.25548568972131E+00
  


 All Electron Calculation, thus no Orbital Energies of the Core Orbitals are calculated

 Integrated fractional orbital density (NFOD):         1.000


 Fit test: (difference of exact and fit density, squared integrated, result summed over spins)
         Sum-of-Fragments:                             0.00000000076346
         Orthogonalized Fragments:                     0.00000529772024
         SCF:                                          0.00000911823356



 ==========================
 Electron Density at Nuclei
 ==========================
  
 The electron density is calculated at points on a small sphere around the center of a nucleus.
 The printed electron density is the average electron density on these points.
 The radius of the sphere is the printed approximate finite nuclear radius.
 Note: ZORA-4 density is used, which includes small component density

         Atom        Nuclear Radius (Angstrom)             Electron Density (a.u.)
         ----        -------------------------             -----------------------
     1)   F                 0.0000361580                              450.93781
     2)   H                 0.0000181514                                0.34924



 =======================================
 M U L L I K E N   P O P U L A T I O N S
 =======================================
  
 The survey below gives for each atom:
 a) the total charge (Z minus electrons)
 b) the net spin polarization (nr of electrons spin-A minus spin-B)
 c) for each spin the atomic electron valence density (integrated) per L-value.

 Atom              Charge    Spin density          S         P         D         F
 ----              ------    ------------       ------    ------    ------    ------
 1 F              -0.4272                       3.8351    5.5774    0.0132    0.0016
 2 H              -0.5728                       1.4601    0.1071    0.0056    0.0000

 Populations of individual BAS functions
 ----------------------------------------
 1 F            0.5914  1.3844  1.1039  0.8583 -0.1029  0.3472  0.4022  0.4111  0.8665  0.9236
                0.9329  0.4716  0.6007  0.6215  0.0174  0.0046  0.0013 -0.0042  0.0002 -0.0062
                0.0071  0.0048  0.0040 -0.0026  0.0001 -0.0039 -0.0025 -0.0004 -0.0015 -0.0033
 2 H            2.5645 -1.5866  0.4822  0.0578  0.0271  0.0222  0.0039  0.0018  0.0010 -0.0005
                0.0002 -0.0009

 Gross Charges per Atom (Z minus electrons)
 ==========================================
            -0.4272   -0.5728
 Net Total: -1.00000000


 Atom-Atom Population Matrix (off-diagonal elements not doubled)
 ===============================================================

     1 :     9.5444
     2 :    -0.1172    1.6900



 =================================================
 H I R S H F E L D   C H A R G E   A N A L Y S I S
 =================================================
  
 For each fragment: the (numerical) integral of rho(scf) * rho(fragment)/rho(sum-of-fragments)
 (nuclear charges are included, electrons are counted negative)

 The fragments and their ordering are defined in the early G E O M E T R Y output section.
 If you use single-atom fragments, this usually implies that all atoms of the same
 chemical type are grouped together. This may not be the order in which you listed them
 in the input file!

  Fragment                       Charge
 ------------------------------------------
    1  F                        -0.5496
    2  H                        -0.4504

 Sum of these charges =         -0.99999440
 (accuracy NumInt/Tails)



 =============================
 V O R O N O I   C H A R G E S
 =============================
  
 For each atom: the (numerical) integral of the total electronic charge density in its Voronoi cell,
 i.e. the region of space that is closer to that atom than to any other atom.
 (cf. Wigner-Seitz cells in crystals)

 Within the Voronoi cell the subintegrals over the atomic sphere and the remaining part are evaluated
 separately to give the numbers of electrons (negative charge) in these regions.
 The net total charge in the cell (including the nuclear charge) is also given.

 Values are provided for
    a) the Initial (sum-of-fragments) density
    b) the Orthogonalized-Fragments density
    c) the SCF density
    d) the Voronoi Deformation Density (VDD): the difference SCF-Initial for the complete atomic cell

  Atom                Initial                    OrthFrag                   SCF
             Sphere RestCell NetTotal   Sphere RestCell NetTotal   Sphere RestCell NetTotal      VDD
 -------     ------------------------   ------------------------   ------------------------    -----
    1 F      -4.194   -4.578    0.228   -4.272   -4.543    0.185   -4.212   -5.096   -0.308   -0.536
    2 H      -0.068   -1.159   -0.228   -0.074   -1.112   -0.185   -0.069   -1.623   -0.692   -0.464
 ---------------------------------------------------------------------------------------------------
 Total NetCharge:               0.000                      0.000                     -1.000   -1.000
 (accuracy NumInt/Tails)

 Remark: the 'NetTotal' Voronoi charges often do not match the Mulliken and/or Hirshfeld charges very
 well. This is caused by the fact that chemically different atoms are not treated in accordance with
 their relative sizes. (Voronoi cells are defined by boundary planes halfway between the atoms.)
 However, the CHANGES in charge, comparing 'Initial' to 'SCF' for instance, do give a fair indication
 of the flow of charge caused by the relaxation from sum-of-fragments to self-consistency.

 Warning: the absolute accuracy of the VDD charges obtained using the Fuzzy Cells (Becke) integration
 scheme is much poorer than the one obtained with an 'equivalent' Voronoi integration grid. 



 =================================================================
 M U L T I P O L E   D E R I V E D   C H A R G E   A N A L Y S I S
 =================================================================

 This charge analysis uses the atomic multipoles (obtained from the fitted density) up to some level X,
 and reconstructs these multipoles exactly (up to level X) by distributing charges over all atoms.
 This is achieved by using Lagrange multipliers and a weight function to keep the multipoles local.

 Dummy atoms can be included (by setting INCDUM in MDC-block to 1) to obtain a fractional charge.
 This is generally useful and necessary only for small symmetrical molecules, when there are not
 enough degrees of freedom to reconstruct the multipoles.

 Since the atomic multipoles are reconstructed up to level X,
 the molecular multipoles are represented also up to level X.
 The recommended level is to reconstruct up to quadrupole : -> MDC-q charges.

 See: M. Swart, P.Th. van Duijnen, J.G. Snijders, J.Comput.Chem., (2001), p. 79-88.

 ------------------------------------------------------------- 
 Atomic electronic multipole moments from SCF equations (a.u.)
 ------------------------------------------------------------- 

   atom        charge        dip-x     dip-y     dip-z      quad-xx   quad-xy   quad-xz   quad-yy   quad-yz   quad-zz
 --------------------------------------------------------------------------------------------------------------------
    1 F     -0.710531    -0.067645  0.028404  0.013993     0.750882 -0.353749 -0.174983 -0.291488  0.073388 -0.459394
    2 H     -0.289469    -0.708095  0.297070  0.146888    -0.251662  0.118573  0.058603  0.097662 -0.024497  0.154000

 --------------------------------------- 
 Multipole derived atomic charges (a.u.)
 --------------------------------------- 

 The MDC-m charges are just the Monopole terms in the multipole expansion, while for the MDC-d charges
 also the Dipoles are reconstructed. The usually preferred charges are the MDC-q charges.
 These reconstruct the Monopoles, Dipoles and Quadrupoles (both atomic AND molecular).

        Atom    Level:     MDC-m        MDC-d        MDC-q
 ---------------------------------------------------------
     1     F           -0.710531    -0.337316    -0.820122
     2     H           -0.289469    -0.662684    -0.179878

 ------------------------------------------------ 
 Average absolute deviations in atomic multipoles
 ------------------------------------------------ 

 Stated here are the average differences between the atomic multipoles
 and the reconstructed atomic multipoles (from the distributed charges).
 If these values are not zero, this means there are not enough degrees of freedom,
 to be able to reconstruct the atomic multipoles. (This usually happens only
 for small and/or highly symmetric molecules). If this is the case, one could add
 dummy atoms as extra point charges (and setting INCDUM in MDC-block to 1).

 Level:                                 MDC-d        MDC-q
 ---------------------------------------------------------
 Charge   (a.u.)                       0.0000       0.0000
 Dipole   (Debye)                      0.0000       0.6917
 Quad.    (a.u.)                       0.5838       0.1164

 --------------------------------------- 
 Represented molecular multipole moments
 --------------------------------------- 

 Given here are the Molecular multipole moments from the atomic charges, and from the Fit Density.
 Note that the atomic charges represent the latter, NOT the ones from the Exact density.

            Q (a.u.)             Dipole moment (Debye)                                          Quadrupole moment (a.u.)
                                 x         y         z              xx        xy        xz        yy        yz        zz
------------------------------------------------------------------------------------------------------------------------
MDC-m        -1.0000       10.5381   -1.3464   -7.6648        -13.2936    3.8536   19.0303   13.1678   -2.5121    0.1257
MDC-d        -1.0000        8.5664   -0.5192   -7.2557         -8.1235    1.6404   14.7317   10.0457   -1.0007   -1.9222
MDC-q        -1.0000       11.1171   -1.5893   -7.7849        -14.8117    4.5035   20.2925   14.0846   -2.9560    0.7271
 
Fit.Dens.    -1.0000        8.5664   -0.5192   -7.2558         -8.8094    2.2429   15.0300   10.3120   -1.1256   -1.5026



 =============
 Dipole Moment  ***  (Debye)  ***
 =============
  
 Vector   :         8.57030930     -0.52083193     -7.25657362
 Magnitude:        11.24185608

 This molecular dipole moment is calculated with analytic integration
 ************************************************************************************
 Since the molecule is NOT NEUTRAL, the dipole moment depends on the choice of origin
 ************************************************************************************



 =========================================
 Quadrupole Moment (Buckingham convention)  ***  (a.u.)  ***
 =========================================
  
      quad-xx        quad-xy        quad-xz        quad-yy        quad-yz        quad-zz
     -8.82035532     2.13007077    14.98042916    10.31839464    -1.10434174    -1.49803932

 This molecular quadrupole moment is calculated with analytic integration



 ===========================
 B O N D I N G   E N E R G Y  ***  (decomposition)  ***
 ===========================
  
*** IMPORTANT NOTE ***

The bond energy is computed as an energy difference between molecule and
fragments. In particular when the fragments are single atoms, they are usually
computed as SPHERICALLY SYMMETRIC and SPIN-RESTRICTED. Obviously, this usually
does NOT represent the true atomic groundstate.

To obtain the 'real' bond energy, (atomic) correction terms must be applied
for the true (multiplet) fragment ground state. See ref: E.J.Baerends,
V.Branchadell, M.Sodupe, Chem.Phys.Lett.265 (1997) 481

General theoretical background on the bond energy decomposition scheme used
here (Morokuma-Ziegler) can be found in the review paper:
F.M. Bickelhaupt and E.J. Baerends,
"Kohn-Sham Density Functional Theory: Predicting and Understanding Chemistry"
In: Rev. Comput. Chem.; Lipkowitz, K. B. and Boyd, D. B., Eds.;
Wiley-VCH: New York, 2000, Vol. 15, 1-86.

Symbols used in the Bickelhaupt-Baerends (BB) paper are given below to make
the direct connection to that paper, where detailed explanations can be found
on the meaning of the various terms.


                                                   hartree              eV         kcal/mol           kJ/mol
                                      --------------------     -----------       ----------      -----------

Pauli Repulsion
  Kinetic (Delta T^0):                   1.245794473852125         33.8998           781.75          3270.83
  Delta V^Pauli Coulomb:                -0.802210972270222        -21.8293          -503.40         -2106.20
  Delta V^Pauli LDA-XC:                 -0.151268770572758         -4.1162           -94.92          -397.16
  Delta V^Pauli GGA-Exchange:            0.012086695445049          0.3289             7.58            31.73
  Delta V^Pauli GGA-Correlation:        -0.011991363651280         -0.3263            -7.52           -31.48
                                      --------------------     -----------       ----------      -----------
  Total Pauli Repulsion:                 0.292410062802913          7.9569           183.49           767.72
 (Total Pauli Repulsion =
  Delta E^Pauli in BB paper)

Steric Interaction
  Pauli Repulsion (Delta E^Pauli):       0.292410062802913          7.9569           183.49           767.72
  Electrostatic Interaction:            -0.076560212619454         -2.0833           -48.04          -201.01
 (Electrostatic Interaction =
  Delta V_elstat in the BB paper)
                                      --------------------     -----------       ----------      -----------
  Total Steric Interaction:              0.215849850183459          5.8736           135.45           566.71
 (Total Steric Interaction =
  Delta E^0 in the BB paper)

Orbital Interactions
  A:                                    -0.430983177778374        -11.7276          -270.45         -1131.55
                                      --------------------     -----------       ----------      -----------
  Total Orbital Interactions:           -0.430983177778374        -11.7276          -270.45         -1131.55

Alternative Decomposition Orb.Int.
  Kinetic:                              -0.992030708911516        -26.9945          -622.51         -2604.58
  Coulomb:                               0.766826271832351         20.8664           481.19          2013.30
  XC:                                   -0.205778740699209         -5.5995          -129.13          -540.27
                                      --------------------     -----------       ----------      -----------
  Total Orbital Interactions:           -0.430983177778375        -11.7276          -270.45         -1131.55

  Residu (E=Steric+OrbInt+Res):          0.000063044143250          0.0017             0.04             0.17
  Dispersion Energy:                    -0.000245752583611         -0.0067            -0.15            -0.65

Total Bonding Energy:                   -0.215316036035276         -5.8590          -135.11          -565.31


Summary of Bonding Energy (energy terms are taken from the energy decomposition above)
======================================================================================

  Electrostatic Energy:                 -0.076560212619454         -2.0833           -48.04          -201.01
  Kinetic Energy:                        0.253763764940609          6.9053           159.24           666.26
  Coulomb (Steric+OrbInt) Energy:       -0.035321656294621         -0.9612           -22.16           -92.74
  XC Energy:                            -0.356952179478199         -9.7132          -223.99          -937.18
  Dispersion Energy:                    -0.000245752583611         -0.0067            -0.15            -0.65
                                      --------------------     -----------       ----------      -----------
  Total Bonding Energy:                 -0.215316036035276         -5.8590          -135.11          -565.31


Correction terms (incorporated in energies above; only for test purposes):

1. Indication of fit-quality: 1st-order fit-correction used in the energy (hartree):   0.0003659520
2. Electrostatic (Fit correction):   0.0000000000

Scaled ZORA energy correction, not included in bonding energy (hartree):           -0.0000154880
 NOTE: This scaled ZORA energy correction should only be used to compare two calculations
 in which the only difference in the calculation is the electron configuration.
 Then the difference in energy of this term should be added to the difference in energy of
 the two electron configurations.
 This term should not be used otherwise.
 In practice it is useful only for core excitation energy calculations.



 =========================================
 F R A G M E N T   E N E R G Y   T E R M S  ***  (summed over all fragments)  ***
 =========================================
  

The energy terms below are (parts of) the Total Energy of the fragments from which the molecule
 is built.

Exchange and Correlation
  Exchange LDA:                         -9.218342886479947       -250.8439         -5784.60        -24202.76
  Exchange GGA:                         -1.007478002501889        -27.4149          -632.20         -2645.13
  Correlation LDA:                       0.000000000000000          0.0000             0.00             0.00
  Correlation GGA:                      -0.341041507863497         -9.2802          -214.01          -895.40
                                      --------------------     -----------       ----------      -----------
  Total XC:                            -10.566862396845334       -287.5390         -6630.81        -27743.29



 =======================================================
 S F O   P O P U L A T I O N S ,   M O   A N A L Y S I S
 =======================================================
  
 A Mulliken population analysis is performed on (input-)selected MOs. All populations refer to SFOs.
 BAS populations may have been printed directly after the SCF part.


                                       === A ===


 SFO contributions (%) per orbital
 (multiplication by the orbital occupation yields the SFO Gross Populations)

 Orb.:        1      2      3      4      5      6      7      8      9     10
 occup:     2.00   2.00   2.00   2.00   2.00   1.00   0.00   0.00   0.00   0.00
 CF+SFO     ----   ----   ----   ----   ----   ----   ----   ----   ----   ----
 ------
      1:   99.97   0.00   0.00  -0.00   0.00  -0.00  -0.00  -0.00   0.00  -0.00
      2:   -0.00  95.55   2.08  -0.00  -0.00   0.86  -1.14  -0.40  -0.00   0.00
      3:    0.00   0.01  -0.94  -0.00  -0.00 -10.77 143.27  -5.87   0.00  -0.00
      4:   -0.00   0.01  -0.09  -0.00  -0.00   0.20  -0.37   1.18   0.00  -0.00
      6:   -0.00   0.26  62.23  14.51   3.20   8.48   3.79   7.58   0.28   0.02
      7:    0.00  -0.02   0.21   0.05   0.01  -0.83 -12.52  -1.00   8.64   0.73
      9:   -0.00   0.05  10.96  29.41  54.90   1.49   0.67   1.33   0.73   0.73
     10:    0.00  -0.00   0.04   0.11   0.20  -0.15  -2.20  -0.18  22.41  22.20
     12:   -0.00   0.01   2.68  54.62  40.44   0.36   0.16   0.33   0.69   0.95
     13:    0.00  -0.00   0.01   0.20   0.15  -0.04  -0.54  -0.04  21.09  29.21
     27:    0.01   3.27  21.82   0.00   0.00  64.07   4.97   1.84  -0.00   0.00
     28:    0.00  -0.12   0.60  -0.00  -0.00  31.64 -31.84  94.34   0.00   0.00
     29:    0.00  -0.25  -0.04   0.00  -0.00  -0.28   4.58   0.02   0.00   0.00
     30:    0.01   0.88   0.03   0.15   0.03   3.56  -6.83   0.89   7.49   0.63
     31:    0.00   0.16   0.01   0.31   0.57   0.63  -1.20   0.16  19.43  19.24
     32:    0.00   0.04   0.00   0.57   0.42   0.15  -0.29   0.04  18.28  25.32


 Summation over all MOs, multiplied by occupation: Total SFO Gross Populations in this Irrep
 ===========================================================================================

     2.00    1.96   -0.13    0.00    0.00    1.69   -0.00   -0.00    1.92    0.01   -0.00    1.96
     0.01   -0.00    0.00    0.00    0.00    0.00    0.00    0.00    0.00    0.00    0.00    0.00
     0.00    0.00    1.14    0.33   -0.01    0.06    0.03    0.02    0.00    0.00    0.00    0.00
     0.00



 List of selected MOs, ordered by energy, with the most significant SFO gross populations
 ========================================================================================

 Each percentage contribution in the table below corres ponds to the indicated SFO.
 In general, a SFO may be a linear combination of several Fragment Orbitals on the same,
 or on symmetry-related Fragments. Only the first 'member' of such a combination is
 specified here. A full definition of all SFOs is given in an earlier part of the output.
 The numbering of the SFOs in this table does NOT include the Core Orbitals, and starts
 from one for each symmetry representation, as in the SFO definition list earlier.

       E(eV)  Occ       MO           %     SFO (first member)   E(eV)  Occ   Fragment
 -------------------------------------------------------------------------------------

     -20.116  2.00     2 A         95.55%     2 S             -29.785  2.00     1 F
                                    3.27%     1 S              -6.532  1.00     2 H
      -3.770  2.00     3 A         62.23%     1 P:x           -11.127  1.67     1 F
                                   21.82%     1 S              -6.532  1.00     2 H
                                   10.96%     1 P:y           -11.127  1.67     1 F
                                    2.68%     1 P:z           -11.127  1.67     1 F
                                    2.08%     2 S             -29.785  2.00     1 F
      -1.188  2.00     4 A         54.62%     1 P:z           -11.127  1.67     1 F
                                   29.41%     1 P:y           -11.127  1.67     1 F
                                   14.51%     1 P:x           -11.127  1.67     1 F
      -1.187  2.00     5 A         54.90%     1 P:y           -11.127  1.67     1 F
                                   40.44%     1 P:z           -11.127  1.67     1 F
                                    3.20%     1 P:x           -11.127  1.67     1 F
       4.069  1.00     6 A         64.07%     1 S              -6.532  1.00     2 H
                                   31.64%     2 S               2.394  0.00     2 H
                                  -10.77%     3 S               0.624  0.00     1 F
                                    8.48%     1 P:x           -11.127  1.67     1 F
                                    3.56%     1 P:x            11.051  0.00     2 H
                                    1.49%     1 P:y           -11.127  1.67     1 F
       6.952  0.00     7 A        143.27%     3 S               0.624  0.00     1 F
                                  -31.84%     2 S               2.394  0.00     2 H
                                  -12.52%     2 P:x            11.654  0.00     1 F
                                   -6.83%     1 P:x            11.051  0.00     2 H
                                    4.97%     1 S              -6.532  1.00     2 H
                                    4.58%     3 S              40.869  0.00     2 H
                                    3.79%     1 P:x           -11.127  1.67     1 F
                                   -2.20%     2 P:y            11.654  0.00     1 F
                                   -1.20%     1 P:y            11.051  0.00     2 H
                                   -1.14%     2 S             -29.785  2.00     1 F
       9.519  0.00     8 A         94.34%     2 S               2.394  0.00     2 H
                                    7.58%     1 P:x           -11.127  1.67     1 F
                                   -5.87%     3 S               0.624  0.00     1 F
                                    1.84%     1 S              -6.532  1.00     2 H
                                    1.33%     1 P:y           -11.127  1.67     1 F
                                    1.18%     4 S              42.880  0.00     1 F



 =======================================================================
 Electrostatic potential at the Nuclei due to electrons and other nuclei
 =======================================================================
  
         Atom                  Potential
         ----                  ---------
     1)   F                  26.96793529
     2)   H                   1.24252753
 Mulliken charges used for AMS results%charges...


    =====================
     CALCULATION RESULTS
    =====================

Energy (hartree)            -0.21531604


--------------
Atomic charges
--------------
  Index   Atom    Charge
      1      F   -0.4272
      2      H   -0.5728


Dipole moment vector    (Debye):     8.57030930   -0.52083193   -7.25657362
              magnitude (Debye):    11.24185608


-----------------------
Molecular orbitals info
-----------------------
n orbitals:               37
n spin:                    1

Note: only printing virtual orbitals with
      energy smaller than HOMO + 100. eV

Note: fractional orbital occupations. HOMO and LUMO labels are not well defined!

HOMO (eV):              -1.1870
LUMO (eV):               4.0689
HOMO-LUMO gap (eV):      5.2559

   Index   Energy (eV)    Occupation
      25       90.8785         0.000       
      24       90.8772         0.000       
      23       84.3434         0.000       
      22       77.2860         0.000       
      21       77.2811         0.000       
      20       57.1930         0.000       
      19       46.8837         0.000       
      18       46.8830         0.000       
      17       38.8358         0.000       
      16       38.8354         0.000       
      15       37.8542         0.000       
      14       32.1209         0.000       
      13       24.2588         0.000       
      12       23.9652         0.000       
      11       23.9644         0.000       
      10       17.5240         0.000       
       9       17.5234         0.000       
       8        9.5187         0.000       
       7        6.9521         0.000       
       6        4.0689         1.000 < LUMO
       5       -1.1870         2.000 < HOMO
       4       -1.1879         2.000       
       3       -3.7703         2.000       
       2      -20.1165         2.000       
       1     -652.8557         2.000       

AMS application finished. Exiting.
NORMAL TERMINATION
     Total cpu time:       2.51
  Total system time:       0.12
 Total elapsed time:       2.65
NORMAL TERMINATION with warnings
