
 *******************************************************************************
 *                                                                             *
 *  --------------------------------                                           *
 *   Amsterdam Modeling Suite (AMS)              2026.103                      *
 *  --------------------------------                                           *
 *                                               r260501 2026-05-01 873454b5   *
 *                                                                             *
 *                                                                             *
 *                              =================                              *
 *                              |               |                              *
 *                              |     A M S     |                              *
 *                              |               |                              *
 *                              =================                              *
 *                                                                             *
 *                                                                             *
 *   Online information and documentation:  https://www.scm.com/support/       *
 *   E-mail:  support@scm.com   info@scm.com                                   *
 *                                                                             *
 *   Scientific publications using AMS results must be properly referenced     *
 *   See the User Manuals (or the web site) for recommended citations          *
 *   The terms and conditions of the End User License Agreement apply to       *
 *   the use of AMS, https://www.scm.com/license-terms/                        *
 *                                                                             *
 **********************  x86_64_linux_intel / intelmpi  ************************
 
 Licensed to: Jong-June Jeon / University of Seoul 2026-05-13 16:10:32
 SCM User ID: u30731
  
 AMS 2026.103  RunTime: May30-2026 06:21:04  ShM Nodes: 1  Procs: 1

 AMS jobname: c4_fragA_opt
 AMS jobid  : 352185395

 Start   directory: /gpfs/home1/yeseo1ee/projects/eda-asm-prediction/adf_outputs/batch_000/dipolar_000722/
 Results directory: /gpfs/home1/yeseo1ee/projects/eda-asm-prediction/adf_outputs/batch_000/dipolar_000722/c4_fragA_opt.results/
 Scratch directory: /tmp/amstmp_c4_fragA_opt_kid0.352185395/

 RNG seed: -804979795 777933988 -498245779 315376728 1973766580 1329427427 -900005417 -2080596122



                      ************************************************************************
                      *  ADF 2026.103  RunTime: May30-2026 06:21:04  ShM Nodes: 1  Procs: 1  *
                      ************************************************************************
  

       ***************************
       *  GEOMETRY OPTIMIZATION  *
       ***************************

Optimization Method                    Quasi Newton
Optimization Coordinates               Delocalized Coordinates
Optimize lattice                       F
 
 ------------------------------------------------------
 Convergence criteria (Hartree,Angstrom)
 ------------------------------------------------------
 Maximum gradient               0.000100000000
 Maximum rms gradient           0.000066666667
 Maximum step allowed           0.010000000000
 Maximum rms step allowed       0.006666666667
 Maximum energy change allowe   0.000140000000
 Maximum stress energy allowe   0.000500000000
 
Initial model Hessian                  Automatic Hessian
 
------------------------------------
Quasi-Newton Optimizer Parameters
------------------------------------
Hessian Update Method                  BFGS
Maximum number of steps                  200
First GDIIS cycle                          0
Maximum GDIIS vectors                      0
Trust radius (bohr)                        0.200000
Trust radius varies                        T
Constraints converged at all steps         T
Use projector                              T
 
 Rigid motions settings for: old optimizer
 Atomic rotations (x,y,z):     T T T
 Atomic translations (x,y,z):  T T T
 Tolerance:                  1.000000000000000E-006

--------
Geometry
--------
Formula: C5H5N3O
Atoms
  Index Symbol   x (angstrom)   y (angstrom)   z (angstrom)
      1      C     4.99630000    -0.21628000    -1.21819000
      2      N     3.64320000     0.29752000    -1.29466000
      3      C     3.06834000     0.92224000    -0.24430000
      4      O     3.69753000     1.23520000     0.77858000
      5      C     1.62417000     1.21471000    -0.32605000
      6      N     0.85229000     0.83699000    -1.32005000
      7      C    -0.17870000     0.21202000    -1.54141000
      8      C    -1.09532000     0.13403000    -2.58801000
      9      N    -1.95254000    -0.05124000    -3.36090000
     10      H     5.06770000    -1.06936000    -0.52158000
     11      H     5.31022000    -0.54686000    -2.21593000
     12      H     5.68583000     0.56628000    -0.87016000
     13      H     3.05400000    -0.00191000    -2.06508000
     14      H     1.26970000     2.05142000     0.27857000

Total System Charge              0.00000


----------------
ADF Engine Input
----------------
 
   Basis
     Type TZ2P
     Core None
   End
   XC
     GGA BLYP
     Dispersion GRIMME3 BJDAMP
   End
   Symmetry NOSYM
   NumericalQuality Normal
   Unrestricted No
   SCF
     Iterations 200
     Converge 1.0e-6
   End
   Save TAPE21
 

 Title: *** (NO TITLE) ***

Challenging geometry: could not add a dihedral for atom    9
 Using automatic Hessian for delocalized coordinates.
 *** GO1_GOStep1 ***

 Energy gradients wrt nuclear displacements
 ==========================================

     Atom      Cartesian (a.u./angstrom)
                 X         Y         Z
 ----------------------------------------
     1 C    -0.022096  0.008682  0.000224
     2 N     0.004850  0.015015  0.026973
     3 C     0.000683 -0.010662 -0.028098
     4 O     0.001312 -0.001817 -0.002511
     5 C    -0.026642 -0.049157  0.036938
     6 N     0.000791  0.019043 -0.083709
     7 C     0.045346  0.021011  0.061895
     8 C    -0.026322 -0.010422 -0.016817
     9 N     0.015629  0.004299  0.012753
    10 H    -0.000333 -0.004726  0.002224
    11 H     0.001806 -0.001432 -0.002809
    12 H     0.005185  0.003311  0.000712
    13 H    -0.001421 -0.000913 -0.000108
    14 H     0.001212  0.007768 -0.007667
 ----------------------------------------
 
----------------------------------------------------------------------
Geometry Convergence after Step   1       (Hartree/Angstrom,Angstrom)
----------------------------------------------------------------------
current energy                               -3.22855880 Hartree
energy change                      -3.22855880     0.00014000    F
constrained gradient max            0.08377249     0.00010000    F
constrained gradient rms            0.02307163     0.00006667    F
gradient max                        0.08377046
gradient rms                        0.02307163
cart. step max                      0.16368620     0.01000000    F
cart. step rms                      0.06647103     0.00666667    F
 

--------
Geometry
--------
Formula: C5H5N3O
Atoms
  Index Symbol   x (angstrom)   y (angstrom)   z (angstrom)
      1      C     4.96912941    -0.22496503    -1.26007988
      2      N     3.60000500     0.27242042    -1.27737866
      3      C     3.07590136     0.95707932    -0.21813395
      4      O     3.75360844     1.33049139     0.75307256
      5      C     1.62122392     1.23410005    -0.23740351
      6      N     0.80051768     0.78294349    -1.16540944
      7      C    -0.21573346     0.15479085    -1.51429935
      8      C    -1.00844158     0.13938740    -2.65457589
      9      N    -1.78885380    -0.01582610    -3.52168577
     10      H     5.09886094    -1.03561972    -0.52606974
     11      H     5.22323284    -0.60278935    -2.25630444
     12      H     5.66181761     0.58387974    -0.99760978
     13      H     2.96990500    -0.07175692    -1.99420794
     14      H     1.28154663     2.08062445     0.36091578

Total System Charge              0.00000

 *** GO1_GOStep2 ***

 Energy gradients wrt nuclear displacements
 ==========================================

     Atom      Cartesian (a.u./angstrom)
                 X         Y         Z
 ----------------------------------------
     1 C    -0.012685  0.003959 -0.000118
     2 N     0.006949  0.005278  0.006159
     3 C    -0.010779  0.001866 -0.018467
     4 O     0.004220  0.000416  0.007839
     5 C     0.011704 -0.019498  0.052265
     6 N     0.026930  0.023037 -0.055380
     7 C    -0.028613 -0.015086  0.017213
     8 C     0.003417 -0.002061  0.003692
     9 N    -0.007383 -0.001544 -0.006695
    10 H     0.000721 -0.002470  0.001117
    11 H     0.001525 -0.001140 -0.001440
    12 H     0.002727  0.001305 -0.000081
    13 H    -0.000376 -0.000932 -0.000261
    14 H     0.001641  0.006870 -0.005843
 ----------------------------------------

 dE(predicted):    -0.94744E-02, dE(actual):    -0.10286E-01, Trust radius:    0.400000, all in a.u.
 
----------------------------------------------------------------------
Geometry Convergence after Step   2       (Hartree/Angstrom,Angstrom)
----------------------------------------------------------------------
current energy                               -3.23884500 Hartree
energy change                      -0.01028619     0.00014000    F
constrained gradient max            0.05546660     0.00010000    F
constrained gradient rms            0.01541788     0.00006667    F
gradient max                        0.05546587
gradient rms                        0.01541788
cart. step max                      0.18132199     0.01000000    F
cart. step rms                      0.07421495     0.00666667    F
 

--------
Geometry
--------
Formula: C5H5N3O
Atoms
  Index Symbol   x (angstrom)   y (angstrom)   z (angstrom)
      1      C     4.93972418    -0.23039585    -1.29207247
      2      N     3.54570238     0.22098453    -1.25819400
      3      C     3.06169186     0.98277446    -0.21815053
      4      O     3.77745466     1.45795252     0.66987831
      5      C     1.59727637     1.25987688    -0.21003420
      6      N     0.75500937     0.70519500    -1.02338034
      7      C    -0.15565499     0.04285376    -1.51166293
      8      C    -0.88769567     0.17448096    -2.67802548
      9      N    -1.60753181     0.12719852    -3.60212883
     10      H     5.14434670    -0.97526564    -0.51168197
     11      H     5.14187098    -0.66902554    -2.27270376
     12      H     5.60702399     0.62104333    -1.13198612
     13      H     2.88617078    -0.18801182    -1.91054222
     14      H     1.23733118     2.05509888     0.44151453

Total System Charge              0.00000

 *** GO1_GOStep3 ***

 Energy gradients wrt nuclear displacements
 ==========================================

     Atom      Cartesian (a.u./angstrom)
                 X         Y         Z
 ----------------------------------------
     1 C    -0.000282 -0.000699 -0.000219
     2 N     0.005475 -0.000481 -0.007491
     3 C    -0.010638 -0.001137  0.005393
     4 O     0.000263  0.002277  0.000579
     5 C     0.008095 -0.000584  0.025478
     6 N     0.001858  0.000334 -0.027504
     7 C    -0.007942 -0.008632 -0.000472
     8 C     0.002463  0.006128  0.006086
     9 N     0.001326 -0.001944  0.003410
    10 H     0.000692  0.000250 -0.000331
    11 H     0.000408  0.000106  0.000311
    12 H    -0.000132 -0.001058 -0.000301
    13 H    -0.000805  0.000182 -0.000384
    14 H    -0.000781  0.005259 -0.004556
 ----------------------------------------

 dE(predicted):    -0.65375E-02, dE(actual):    -0.77648E-02, Trust radius:    0.800000, all in a.u.
 
----------------------------------------------------------------------
Geometry Convergence after Step   3       (Hartree/Angstrom,Angstrom)
----------------------------------------------------------------------
current energy                               -3.24660984 Hartree
energy change                      -0.00776484     0.00014000    F
constrained gradient max            0.02752803     0.00010000    F
constrained gradient rms            0.00689838     0.00006667    F
gradient max                        0.02753179
gradient rms                        0.00689838
cart. step max                      0.20127467     0.01000000    F
cart. step rms                      0.05140203     0.00666667    F
 

--------
Geometry
--------
Formula: C5H5N3O
Atoms
  Index Symbol   x (angstrom)   y (angstrom)   z (angstrom)
      1      C     4.89784479    -0.23663569    -1.32404033
      2      N     3.50506443     0.22076481    -1.26017402
      3      C     3.05950966     1.01555229    -0.22766923
      4      O     3.80062871     1.48414220     0.64025904
      5      C     1.59123714     1.28643731    -0.17459381
      6      N     0.73020434     0.71561623    -0.94076992
      7      C    -0.16678391     0.06947823    -1.46267664
      8      C    -0.79115254     0.16485852    -2.69493462
      9      N    -1.40625713     0.08257907    -3.68907898
     10      H     5.12244433    -0.96046155    -0.53036914
     11      H     5.06726690    -0.70127857    -2.29839826
     12      H     5.56966233     0.61760608    -1.20634178
     13      H     2.82417637    -0.20156992    -1.88073765
     14      H     1.23887457     2.02767099     0.54035535

Total System Charge              0.00000

 *** GO1_GOStep4 ***

 Energy gradients wrt nuclear displacements
 ==========================================

     Atom      Cartesian (a.u./angstrom)
                 X         Y         Z
 ----------------------------------------
     1 C     0.002402 -0.001584  0.000352
     2 N     0.003433 -0.003761 -0.006894
     3 C    -0.005893  0.012252  0.000519
     4 O    -0.001657 -0.003204  0.000927
     5 C     0.002657 -0.002690  0.009197
     6 N     0.002588 -0.006117 -0.015233
     7 C    -0.008431  0.005629  0.006949
     8 C     0.006850  0.001962  0.000651
     9 N     0.001114 -0.001662  0.004585
    10 H     0.000584  0.000560 -0.000834
    11 H     0.000044  0.000173  0.000468
    12 H    -0.000624 -0.001111 -0.000218
    13 H    -0.000678 -0.000176  0.000231
    14 H    -0.002388 -0.000272 -0.000702
 ----------------------------------------

 dE(predicted):    -0.30883E-02, dE(actual):    -0.12750E-02, Trust radius:    0.800000, all in a.u.
 
----------------------------------------------------------------------
Geometry Convergence after Step   4       (Hartree/Angstrom,Angstrom)
----------------------------------------------------------------------
current energy                               -3.24788483 Hartree
energy change                      -0.00127499     0.00014000    F
constrained gradient max            0.01532778     0.00010000    F
constrained gradient rms            0.00461072     0.00006667    F
gradient max                        0.01533050
gradient rms                        0.00461072
cart. step max                      0.14109971     0.01000000    F
cart. step rms                      0.04954755     0.00666667    F
 

--------
Geometry
--------
Formula: C5H5N3O
Atoms
  Index Symbol   x (angstrom)   y (angstrom)   z (angstrom)
      1      C     4.89947191    -0.22851543    -1.31846752
      2      N     3.49036327     0.17077990    -1.22683602
      3      C     3.05871958     1.02057966    -0.24007731
      4      O     3.81218456     1.56990587     0.56650666
      5      C     1.58232487     1.27692268    -0.18879793
      6      N     0.73283105     0.66222026    -0.91712586
      7      C    -0.11062887     0.00787243    -1.51494858
      8      C    -0.79443508     0.20700952    -2.70966004
      9      N    -1.42380701     0.22367879    -3.70122877
     10      H     5.18328378    -0.88684106    -0.48786128
     11      H     5.05023848    -0.74985544    -2.26678838
     12      H     5.53321685     0.66191544    -1.28405555
     13      H     2.80577188    -0.31561778    -1.79303550
     14      H     1.22318473     1.96470516     0.57320607

Total System Charge              0.00000

 *** GO1_GOStep5 ***

 Energy gradients wrt nuclear displacements
 ==========================================

     Atom      Cartesian (a.u./angstrom)
                 X         Y         Z
 ----------------------------------------
     1 C     0.003630 -0.000680  0.000647
     2 N    -0.001121 -0.001178 -0.004633
     3 C    -0.002381  0.001845  0.006296
     4 O    -0.000022 -0.001621 -0.001775
     5 C    -0.010182  0.001423 -0.011054
     6 N     0.017399 -0.001465  0.012684
     7 C     0.001341 -0.000689  0.000780
     8 C    -0.002859  0.002789  0.004092
     9 N    -0.002516 -0.000301 -0.006077
    10 H    -0.000612  0.000573 -0.000469
    11 H    -0.000663  0.000367  0.000400
    12 H    -0.000803 -0.000508 -0.000042
    13 H    -0.000351  0.000452  0.000448
    14 H    -0.000859 -0.001006 -0.001298
 ----------------------------------------
 Rebuilding optimization coordinates
Challenging geometry: added dihedral    14    5    7    8
Challenging geometry: could not add a dihedral for atom    9

 dE(predicted):    -0.99123E-03, dE(actual):    -0.64319E-03, Trust radius:    0.800000, all in a.u.
 
----------------------------------------------------------------------
Geometry Convergence after Step   5       (Hartree/Angstrom,Angstrom)
----------------------------------------------------------------------
current energy                               -3.24852802 Hartree
energy change                      -0.00064319     0.00014000    F
constrained gradient max            0.01738322     0.00010000    F
constrained gradient rms            0.00455483     0.00006667    F
gradient max                        0.01738407
gradient rms                        0.00455484
cart. step max                      0.04222219     0.01000000    F
cart. step rms                      0.02014217     0.00666667    F
 

--------
Geometry
--------
Formula: C5H5N3O
Atoms
  Index Symbol   x (angstrom)   y (angstrom)   z (angstrom)
      1      C     4.89525309    -0.22323961    -1.33008835
      2      N     3.48192790     0.14612053    -1.20331472
      3      C     3.05640964     1.00144366    -0.22126883
      4      O     3.81642362     1.57867411     0.56078954
      5      C     1.58091391     1.26362000    -0.16369577
      6      N     0.72175920     0.67536143    -0.91401499
      7      C    -0.13611847     0.03920898    -1.51034032
      8      C    -0.77613270     0.21595142    -2.73069158
      9      N    -1.38690188     0.21218655    -3.73143378
     10      H     5.21793738    -0.86552097    -0.50045028
     11      H     5.03212107    -0.75292623    -2.27637265
     12      H     5.51108406     0.68097015    -1.32443275
     13      H     2.79455461    -0.35777070    -1.75081331
     14      H     1.23348858     1.97068066     0.58695778

Total System Charge              0.00000

 *** GO1_GOStep6 ***

 Energy gradients wrt nuclear displacements
 ==========================================

     Atom      Cartesian (a.u./angstrom)
                 X         Y         Z
 ----------------------------------------
     1 C     0.001902  0.000133 -0.000127
     2 N    -0.000589  0.001392 -0.003145
     3 C    -0.000996 -0.003635  0.006086
     4 O     0.000647  0.000796 -0.001671
     5 C    -0.002084  0.005603 -0.002638
     6 N     0.007392 -0.006905  0.000428
     7 C    -0.003466  0.001198  0.002455
     8 C    -0.002306  0.002115 -0.003165
     9 N     0.000966 -0.000885  0.001701
    10 H    -0.000416  0.000237 -0.000082
    11 H    -0.000280  0.000178 -0.000006
    12 H    -0.000373 -0.000210 -0.000208
    13 H    -0.000177  0.000188  0.000326
    14 H    -0.000219 -0.000206  0.000049
 ----------------------------------------

 dE(predicted):    -0.28037E-03, dE(actual):    -0.25733E-03, Trust radius:    0.800000, all in a.u.
 
----------------------------------------------------------------------
Geometry Convergence after Step   6       (Hartree/Angstrom,Angstrom)
----------------------------------------------------------------------
current energy                               -3.24878535 Hartree
energy change                      -0.00025733     0.00014000    F
constrained gradient max            0.00737700     0.00010000    F
constrained gradient rms            0.00249018     0.00006667    F
gradient max                        0.00737724
gradient rms                        0.00249018
cart. step max                      0.07130517     0.01000000    F
cart. step rms                      0.02484950     0.00666667    F
 

--------
Geometry
--------
Formula: C5H5N3O
Atoms
  Index Symbol   x (angstrom)   y (angstrom)   z (angstrom)
      1      C     4.90788674    -0.22454120    -1.31497778
      2      N     3.49372887     0.14545511    -1.20511070
      3      C     3.06061546     1.03328733    -0.25633769
      4      O     3.80932047     1.60576384     0.54022790
      5      C     1.57803046     1.24363958    -0.17007505
      6      N     0.72960184     0.65747617    -0.93448673
      7      C    -0.11089393     0.01544345    -1.54743341
      8      C    -0.80010025     0.23356150    -2.73238233
      9      N    -1.45820705     0.26994423    -3.70289885
     10      H     5.23071590    -0.83930152    -0.46465863
     11      H     5.04953177    -0.78411312    -2.24334248
     12      H     5.52209716     0.68080156    -1.33668071
     13      H     2.81068657    -0.37726054    -1.74041859
     14      H     1.21970598     1.92460360     0.59940506

Total System Charge              0.00000

 *** GO1_GOStep7 ***

 Energy gradients wrt nuclear displacements
 ==========================================

     Atom      Cartesian (a.u./angstrom)
                 X         Y         Z
 ----------------------------------------
     1 C     0.001169 -0.000822  0.000236
     2 N    -0.000594 -0.002431  0.000704
     3 C     0.001194  0.010910 -0.007453
     4 O    -0.000770 -0.004751  0.003466
     5 C    -0.003583  0.001114  0.003404
     6 N     0.005670 -0.007751 -0.000771
     7 C    -0.000745  0.001078  0.000804
     8 C    -0.000939  0.001739  0.000570
     9 N    -0.000678 -0.000127 -0.000386
    10 H     0.000100  0.000140 -0.000439
    11 H    -0.000274  0.000098  0.000023
    12 H    -0.000476  0.000171 -0.000163
    13 H    -0.000161 -0.000479  0.000606
    14 H     0.000089  0.001111 -0.000602
 ----------------------------------------

 dE(predicted):    -0.18062E-03, dE(actual):     0.11288E-03, Trust radius:    0.041390, all in a.u.
 
----------------------------------------------------------------------
Geometry Convergence after Step   7       (Hartree/Angstrom,Angstrom)
----------------------------------------------------------------------
current energy                               -3.24867247 Hartree
energy change                       0.00011288     0.00014000    T
constrained gradient max            0.01088892     0.00010000    F
constrained gradient rms            0.00287953     0.00006667    F
gradient max                        0.01088867
gradient rms                        0.00287953
cart. step max                      0.01168122     0.01000000    F
cart. step rms                      0.00488176     0.00666667    T
 

--------
Geometry
--------
Formula: C5H5N3O
Atoms
  Index Symbol   x (angstrom)   y (angstrom)   z (angstrom)
      1      C     4.90662062    -0.22363406    -1.31775671
      2      N     3.49188718     0.14081872    -1.20130662
      3      C     3.05951597     1.02383698    -0.24837835
      4      O     3.81107357     1.60697090     0.53804835
      5      C     1.57809873     1.24340168    -0.16561558
      6      N     0.72660134     0.66380647    -0.93183807
      7      C    -0.11891997     0.02538207    -1.54232640
      8      C    -0.79782359     0.23278964    -2.73463289
      9      N    -1.44652584     0.26024229    -3.71179016
     10      H     5.23422852    -0.84080440    -0.47084833
     11      H     5.04736410    -0.77913638    -2.24881426
     12      H     5.51857321     0.68339969    -1.33784253
     13      H     2.80890609    -0.38160101    -1.73699418
     14      H     1.22312006     1.92928740     0.60092573

Total System Charge              0.00000

 *** GO1_GOStep8 ***

 Energy gradients wrt nuclear displacements
 ==========================================

     Atom      Cartesian (a.u./angstrom)
                 X         Y         Z
 ----------------------------------------
     1 C     0.000583 -0.000415  0.000113
     2 N    -0.000208 -0.001113  0.000184
     3 C     0.000672  0.005828 -0.004571
     4 O    -0.000219 -0.002701  0.002239
     5 C    -0.003301  0.001946  0.002641
     6 N     0.006323 -0.006492 -0.000721
     7 C    -0.002101  0.000948  0.000692
     8 C    -0.000854  0.001352  0.000433
     9 N    -0.000579 -0.000143 -0.000320
    10 H     0.000030  0.000112 -0.000262
    11 H    -0.000146  0.000077 -0.000102
    12 H    -0.000197  0.000113 -0.000196
    13 H    -0.000064 -0.000283  0.000389
    14 H     0.000060  0.000770 -0.000521
 ----------------------------------------

 dE(predicted):    -0.14410E-03, dE(actual):    -0.15388E-03, Trust radius:    0.082779, all in a.u.
 
----------------------------------------------------------------------
Geometry Convergence after Step   8       (Hartree/Angstrom,Angstrom)
----------------------------------------------------------------------
current energy                               -3.24882634 Hartree
energy change                      -0.00015388     0.00014000    F
constrained gradient max            0.00646599     0.00010000    F
constrained gradient rms            0.00209181     0.00006667    F
gradient max                        0.00646595
gradient rms                        0.00209181
cart. step max                      0.03606801     0.01000000    F
cart. step rms                      0.01377098     0.00666667    F
 

--------
Geometry
--------
Formula: C5H5N3O
Atoms
  Index Symbol   x (angstrom)   y (angstrom)   z (angstrom)
      1      C     4.89893787    -0.22210822    -1.32600348
      2      N     3.48283516     0.12675096    -1.18625531
      3      C     3.05687512     1.01468246    -0.23614750
      4      O     3.81503246     1.62662754     0.52163631
      5      C     1.57631180     1.23941689    -0.15113975
      6      N     0.72324546     0.66908475    -0.92217266
      7      C    -0.12176149     0.03865489    -1.54051628
      8      C    -0.78009975     0.23692051    -2.74460648
      9      N    -1.41045783     0.25786729    -3.73381641
     10      H     5.24895302    -0.83030171    -0.48136975
     11      H     5.02958271    -0.78217288    -2.25593364
     12      H     5.50081932     0.69127120    -1.36280835
     13      H     2.79707259    -0.40489416    -1.70924687
     14      H     1.22537356     1.92296048     0.61921019

Total System Charge              0.00000

 *** GO1_GOStep9 ***

 Energy gradients wrt nuclear displacements
 ==========================================

     Atom      Cartesian (a.u./angstrom)
                 X         Y         Z
 ----------------------------------------
     1 C    -0.000142 -0.000055 -0.000082
     2 N    -0.000338  0.000812 -0.000176
     3 C     0.000676 -0.000648 -0.000018
     4 O    -0.000036 -0.000166  0.000154
     5 C    -0.003353  0.003088  0.000445
     6 N     0.006321 -0.006352 -0.001089
     7 C    -0.002650  0.002405  0.001211
     8 C    -0.000412  0.000559  0.000130
     9 N    -0.000344 -0.000006  0.000084
    10 H     0.000015  0.000097 -0.000128
    11 H    -0.000037  0.000091 -0.000257
    12 H     0.000069  0.000088 -0.000269
    13 H    -0.000022 -0.000066  0.000000
    14 H     0.000253  0.000153 -0.000005
 ----------------------------------------

 dE(predicted):    -0.11508E-03, dE(actual):    -0.11328E-03, Trust radius:    0.165559, all in a.u.
 
----------------------------------------------------------------------
Geometry Convergence after Step   9       (Hartree/Angstrom,Angstrom)
----------------------------------------------------------------------
current energy                               -3.24893963 Hartree
energy change                      -0.00011328     0.00014000    T
constrained gradient max            0.00632481     0.00010000    F
constrained gradient rms            0.00168296     0.00006667    F
gradient max                        0.00632496
gradient rms                        0.00168296
cart. step max                      0.02334621     0.01000000    F
cart. step rms                      0.01056147     0.00666667    F
 

--------
Geometry
--------
Formula: C5H5N3O
Atoms
  Index Symbol   x (angstrom)   y (angstrom)   z (angstrom)
      1      C     4.89750168    -0.22169663    -1.32758045
      2      N     3.48003947     0.11577599    -1.17610893
      3      C     3.05570773     1.01607799    -0.23717914
      4      O     3.81637785     1.64997375     0.49998118
      5      C     1.57420626     1.23231188    -0.14297665
      6      N     0.72143620     0.66913531    -0.91980700
      7      C    -0.11956118     0.04280225    -1.54757628
      8      C    -0.77524468     0.24514548    -2.75163415
      9      N    -1.40146926     0.27098187    -3.74341420
     10      H     5.26271166    -0.81700296    -0.48009812
     11      H     5.02306573    -0.79171901    -2.25220784
     12      H     5.49080726     0.69646886    -1.38172009
     13      H     2.79389219    -0.42738022    -1.68659903
     14      H     1.22324908     1.90388545     0.63775069

Total System Charge              0.00000

 *** GO1_GOStep10 ***

 Energy gradients wrt nuclear displacements
 ==========================================

     Atom      Cartesian (a.u./angstrom)
                 X         Y         Z
 ----------------------------------------
     1 C    -0.000440 -0.000082 -0.000073
     2 N     0.000003  0.000930 -0.000077
     3 C     0.000458 -0.001903  0.000819
     4 O     0.000079  0.000510 -0.000529
     5 C    -0.003346  0.003520  0.000272
     6 N     0.006442 -0.005858 -0.001020
     7 C    -0.003229  0.002696  0.000767
     8 C    -0.000242 -0.000165  0.000304
     9 N    -0.000311  0.000224  0.000023
    10 H     0.000108  0.000073 -0.000155
    11 H    -0.000022  0.000090 -0.000262
    12 H     0.000151  0.000105 -0.000262
    13 H     0.000077  0.000098 -0.000168
    14 H     0.000272 -0.000238  0.000360
 ----------------------------------------

 dE(predicted):    -0.24060E-04, dE(actual):    -0.74064E-05, Trust radius:    0.165559, all in a.u.
 
----------------------------------------------------------------------
Geometry Convergence after Step  10       (Hartree/Angstrom,Angstrom)
----------------------------------------------------------------------
current energy                               -3.24894703 Hartree
energy change                      -0.00000741     0.00014000    T
constrained gradient max            0.00642830     0.00010000    F
constrained gradient rms            0.00172733     0.00006667    F
gradient max                        0.00642828
gradient rms                        0.00172733
cart. step max                      0.02259799     0.01000000    F
cart. step rms                      0.00935113     0.00666667    F
 

--------
Geometry
--------
Formula: C5H5N3O
Atoms
  Index Symbol   x (angstrom)   y (angstrom)   z (angstrom)
      1      C     4.89655593    -0.22093459    -1.32913847
      2      N     3.47780372     0.10537842    -1.16633128
      3      C     3.05487654     1.01828302    -0.23872771
      4      O     3.81702215     1.66767550     0.48359454
      5      C     1.57275347     1.22578091    -0.13625839
      6      N     0.72061674     0.66982691    -0.91940709
      7      C    -0.11570333     0.04614310    -1.55549586
      8      C    -0.77132809     0.25314284    -2.75803853
      9      N    -1.39656185     0.28308733    -3.75030335
     10      H     5.27588073    -0.80390543    -0.47921312
     11      H     5.01774952    -0.80026127    -2.24859489
     12      H     5.48093496     0.70179845    -1.39929449
     13      H     2.79124879    -0.44910881    -1.66400104
     14      H     1.22087073     1.88785363     0.65203968

Total System Charge              0.00000

 *** GO1_GOStep11 ***

 Energy gradients wrt nuclear displacements
 ==========================================

     Atom      Cartesian (a.u./angstrom)
                 X         Y         Z
 ----------------------------------------
     1 C    -0.000520  0.000073 -0.000224
     2 N     0.000226  0.000351  0.000086
     3 C     0.000062 -0.001449  0.000469
     4 O     0.000312  0.000750 -0.000336
     5 C    -0.003000  0.003300  0.000703
     6 N     0.005871 -0.005555 -0.001555
     7 C    -0.003189  0.002973  0.000548
     8 C    -0.000134 -0.000562  0.000435
     9 N    -0.000183  0.000308  0.000225
    10 H     0.000126  0.000028 -0.000122
    11 H    -0.000010  0.000038 -0.000232
    12 H     0.000148  0.000126 -0.000251
    13 H     0.000058  0.000068 -0.000238
    14 H     0.000233 -0.000449  0.000492
 ----------------------------------------

 dE(predicted):    -0.15201E-04, dE(actual):    -0.13782E-05, Trust radius:    0.020000, all in a.u.
 
----------------------------------------------------------------------
Geometry Convergence after Step  11       (Hartree/Angstrom,Angstrom)
----------------------------------------------------------------------
current energy                               -3.24894841 Hartree
energy change                      -0.00000138     0.00014000    T
constrained gradient max            0.00585804     0.00010000    F
constrained gradient rms            0.00163332     0.00006667    F
gradient max                        0.00585801
gradient rms                        0.00163332
cart. step max                      0.00647344     0.01000000    T
cart. step rms                      0.00259732     0.00666667    T
 

--------
Geometry
--------
Formula: C5H5N3O
Atoms
  Index Symbol   x (angstrom)   y (angstrom)   z (angstrom)
      1      C     4.89499616    -0.22111728    -1.33051678
      2      N     3.47614097     0.10317666    -1.16343394
      3      C     3.05469924     1.02016531    -0.23867632
      4      O     3.81796171     1.67142557     0.48063890
      5      C     1.57274485     1.22506812    -0.13267963
      6      N     0.72064977     0.67260555    -0.91874945
      7      C    -0.11231569     0.04795606    -1.55792359
      8      C    -0.76788534     0.25386604    -2.76026180
      9      N    -1.39247034     0.28167485    -3.75297832
     10      H     5.27773528    -0.80339831    -0.48169190
     11      H     5.01425867    -0.80072544    -2.25003607
     12      H     5.47748337     0.70249262    -1.40256631
     13      H     2.78854668    -0.45322081    -1.65752760
     14      H     1.22017467     1.88479107     0.65723281

Total System Charge              0.00000

 *** GO1_GOStep12 ***

 Energy gradients wrt nuclear displacements
 ==========================================

     Atom      Cartesian (a.u./angstrom)
                 X         Y         Z
 ----------------------------------------
     1 C    -0.000228  0.000177 -0.000291
     2 N     0.000248 -0.000170  0.000060
     3 C    -0.000198 -0.000379  0.000217
     4 O     0.000243  0.000442 -0.000241
     5 C    -0.002436  0.002868  0.001267
     6 N     0.005314 -0.005309 -0.002043
     7 C    -0.003002  0.003005  0.000447
     8 C    -0.000066 -0.000548  0.000551
     9 N    -0.000095  0.000248  0.000385
    10 H     0.000111  0.000021 -0.000190
    11 H    -0.000019  0.000003 -0.000185
    12 H     0.000048  0.000033 -0.000217
    13 H    -0.000018  0.000071 -0.000198
    14 H     0.000098 -0.000463  0.000438
 ----------------------------------------

 dE(predicted):    -0.11683E-04, dE(actual):    -0.14387E-04, Trust radius:    0.040000, all in a.u.
 
----------------------------------------------------------------------
Geometry Convergence after Step  12       (Hartree/Angstrom,Angstrom)
----------------------------------------------------------------------
current energy                               -3.24896280 Hartree
energy change                      -0.00001439     0.00014000    T
constrained gradient max            0.00530191     0.00010000    F
constrained gradient rms            0.00151493     0.00006667    F
gradient max                        0.00530187
gradient rms                        0.00151493
cart. step max                      0.01820901     0.01000000    F
cart. step rms                      0.00767778     0.00666667    F
 

--------
Geometry
--------
Formula: C5H5N3O
Atoms
  Index Symbol   x (angstrom)   y (angstrom)   z (angstrom)
      1      C     4.88775833    -0.22258298    -1.33576782
      2      N     3.46974946     0.10335901    -1.16052985
      3      C     3.05438280     1.02532014    -0.23638566
      4      O     3.82206459     1.67155614     0.48223670
      5      C     1.57368732     1.22944449    -0.12287683
      6      N     0.71977827     0.68429089    -0.91308824
      7      C    -0.10006596     0.05201340    -1.56045526
      8      C    -0.75392481     0.24888863    -2.76428264
      9      N    -1.37451241     0.26346584    -3.75978540
     10      H     5.27228790    -0.81320546    -0.49369998
     11      H     5.00237331    -0.79477932    -2.26042538
     12      H     5.47041662     0.70083858    -1.40148576
     13      H     2.77799581    -0.45087791    -1.65111406
     14      H     1.22072879     1.88702857     0.66849019

Total System Charge              0.00000

 *** GO1_GOStep13 ***

 Energy gradients wrt nuclear displacements
 ==========================================

     Atom      Cartesian (a.u./angstrom)
                 X         Y         Z
 ----------------------------------------
     1 C     0.000846  0.000459 -0.000472
     2 N     0.000150 -0.001540 -0.000260
     3 C    -0.000916  0.002568 -0.000195
     4 O     0.000031 -0.000564  0.000035
     5 C    -0.000600  0.001552  0.002448
     6 N     0.003232 -0.004575 -0.002892
     7 C    -0.001820  0.002886  0.000197
     8 C     0.000034 -0.000062  0.000917
     9 N     0.000081 -0.000161  0.000670
    10 H     0.000026  0.000002 -0.000392
    11 H    -0.000090 -0.000073 -0.000041
    12 H    -0.000356 -0.000240 -0.000122
    13 H    -0.000234  0.000142 -0.000031
    14 H    -0.000385 -0.000395  0.000138
 ----------------------------------------

 dE(predicted):    -0.45196E-04, dE(actual):    -0.61536E-04, Trust radius:    0.080000, all in a.u.
 
----------------------------------------------------------------------
Geometry Convergence after Step  13       (Hartree/Angstrom,Angstrom)
----------------------------------------------------------------------
current energy                               -3.24902434 Hartree
energy change                      -0.00006154     0.00014000    T
constrained gradient max            0.00453103     0.00010000    F
constrained gradient rms            0.00132073     0.00006667    F
gradient max                        0.00453069
gradient rms                        0.00132073
cart. step max                      0.02213312     0.01000000    F
cart. step rms                      0.00878559     0.00666667    F
 

--------
Geometry
--------
Formula: C5H5N3O
Atoms
  Index Symbol   x (angstrom)   y (angstrom)   z (angstrom)
      1      C     4.88042212    -0.22442448    -1.34006425
      2      N     3.46347370     0.10608333    -1.16195713
      3      C     3.05376390     1.02892101    -0.23545035
      4      O     3.82598532     1.66866649     0.48378809
      5      C     1.57442537     1.23665538    -0.11514438
      6      N     0.71515460     0.69694397    -0.90387313
      7      C    -0.08905024     0.05422341    -1.55983809
      8      C    -0.74038784     0.24086907    -2.76616108
      9      N    -1.35563724     0.24133271    -3.76517080
     10      H     5.26050678    -0.83013677    -0.50681705
     11      H     4.99387932    -0.78255806    -2.27336947
     12      H     5.46650677     0.69754028    -1.38982424
     13      H     2.76858271    -0.44380777    -1.65278434
     14      H     1.22509472     1.89445143     0.67749622

Total System Charge              0.00000

 *** GO1_GOStep14 ***

 Energy gradients wrt nuclear displacements
 ==========================================

     Atom      Cartesian (a.u./angstrom)
                 X         Y         Z
 ----------------------------------------
     1 C     0.001480  0.000663 -0.000426
     2 N     0.000076 -0.002318 -0.000517
     3 C    -0.001286  0.003924 -0.000278
     4 O    -0.000083 -0.001183 -0.000009
     5 C     0.000976  0.000475  0.002693
     6 N     0.001026 -0.003295 -0.002347
     7 C    -0.000526  0.002355 -0.000339
     8 C    -0.000018  0.000507  0.001219
     9 N     0.000072 -0.000621  0.000608
    10 H    -0.000034 -0.000003 -0.000462
    11 H    -0.000153 -0.000102  0.000016
    12 H    -0.000526 -0.000345 -0.000069
    13 H    -0.000260  0.000269  0.000072
    14 H    -0.000744 -0.000325 -0.000160
 ----------------------------------------

 dE(predicted):    -0.37779E-04, dE(actual):    -0.66677E-04, Trust radius:    0.080000, all in a.u.
 
----------------------------------------------------------------------
Geometry Convergence after Step  14       (Hartree/Angstrom,Angstrom)
----------------------------------------------------------------------
current energy                               -3.24909101 Hartree
energy change                      -0.00006668     0.00014000    T
constrained gradient max            0.00395094     0.00010000    F
constrained gradient rms            0.00121868     0.00006667    F
gradient max                        0.00395066
gradient rms                        0.00121868
cart. step max                      0.02066288     0.01000000    F
cart. step rms                      0.00966270     0.00666667    F
 

--------
Geometry
--------
Formula: C5H5N3O
Atoms
  Index Symbol   x (angstrom)   y (angstrom)   z (angstrom)
      1      C     4.87308352    -0.22621766    -1.34383978
      2      N     3.45791132     0.11256687    -1.16729792
      3      C     3.05301725     1.03021626    -0.23415264
      4      O     3.82825138     1.66230364     0.48882968
      5      C     1.57477952     1.24586324    -0.11145539
      6      N     0.70929929     0.70627664    -0.89333125
      7      C    -0.08194218     0.05213051    -1.55397265
      8      C    -0.72727819     0.22988437    -2.76512599
      9      N    -1.33520763     0.22066983    -3.76861364
     10      H     5.24392674    -0.84986744    -0.51967622
     11      H     4.98774188    -0.76745421    -2.28688685
     12      H     5.46598144     0.69237112    -1.37315481
     13      H     2.76083545    -0.43153089    -1.66141184
     14      H     1.23232021     1.90754771     0.68091930

Total System Charge              0.00000

 *** GO1_GOStep15 ***

 Energy gradients wrt nuclear displacements
 ==========================================

     Atom      Cartesian (a.u./angstrom)
                 X         Y         Z
 ----------------------------------------
     1 C     0.001250  0.000523 -0.000318
     2 N    -0.000200 -0.001948 -0.000510
     3 C    -0.001121  0.003009 -0.000188
     4 O     0.000080 -0.000870  0.000104
     5 C     0.001713 -0.000054  0.001762
     6 N    -0.000549 -0.002212 -0.001108
     7 C     0.000325  0.001716 -0.000714
     8 C    -0.000062  0.000817  0.001231
     9 N    -0.000028 -0.000826  0.000424
    10 H    -0.000036  0.000019 -0.000351
    11 H    -0.000157 -0.000044 -0.000038
    12 H    -0.000388 -0.000164 -0.000105
    13 H    -0.000161  0.000258  0.000024
    14 H    -0.000667 -0.000224 -0.000214
 ----------------------------------------

 dE(predicted):    -0.29625E-04, dE(actual):    -0.62829E-04, Trust radius:    0.080000, all in a.u.
 
----------------------------------------------------------------------
Geometry Convergence after Step  15       (Hartree/Angstrom,Angstrom)
----------------------------------------------------------------------
current energy                               -3.24915384 Hartree
energy change                      -0.00006283     0.00014000    T
constrained gradient max            0.00303347     0.00010000    F
constrained gradient rms            0.00093624     0.00006667    F
gradient max                        0.00303315
gradient rms                        0.00093624
cart. step max                      0.02301091     0.01000000    F
cart. step rms                      0.01104545     0.00666667    F
 

--------
Geometry
--------
Formula: C5H5N3O
Atoms
  Index Symbol   x (angstrom)   y (angstrom)   z (angstrom)
      1      C     4.86673108    -0.22826780    -1.34649740
      2      N     3.45430928     0.12392009    -1.17673514
      3      C     3.05223156     1.03070440    -0.23323653
      4      O     3.82846064     1.65273152     0.49758831
      5      C     1.57472510     1.25662191    -0.11194800
      6      N     0.70388340     0.71285921    -0.88419665
      7      C    -0.07872533     0.04566408    -1.54347766
      8      C    -0.71643204     0.21563165    -2.76079432
      9      N    -1.31697776     0.20193208    -3.76866601
     10      H     5.22249710    -0.87287835    -0.53179770
     11      H     4.98508907    -0.75032856    -2.29986144
     12      H     5.47049506     0.68396270    -1.35080434
     13      H     2.75588251    -0.41220310    -1.67769309
     14      H     1.24055033     1.92441016     0.67894996

Total System Charge              0.00000

 *** GO1_GOStep16 ***

 Energy gradients wrt nuclear displacements
 ==========================================

     Atom      Cartesian (a.u./angstrom)
                 X         Y         Z
 ----------------------------------------
     1 C     0.000481  0.000160 -0.000118
     2 N    -0.000265 -0.000636 -0.000141
     3 C    -0.000648  0.000849 -0.000050
     4 O     0.000109 -0.000273  0.000005
     5 C     0.001591 -0.000060  0.000440
     6 N    -0.000977 -0.001022  0.000208
     7 C     0.000411  0.000761 -0.000913
     8 C     0.000020  0.000695  0.001083
     9 N    -0.000268 -0.000684  0.000114
    10 H     0.000024  0.000064 -0.000201
    11 H    -0.000105  0.000067 -0.000149
    12 H    -0.000101  0.000032 -0.000153
    13 H    -0.000006  0.000178 -0.000102
    14 H    -0.000266 -0.000132 -0.000021
 ----------------------------------------

 dE(predicted):    -0.23876E-04, dE(actual):    -0.48359E-04, Trust radius:    0.080000, all in a.u.
 
----------------------------------------------------------------------
Geometry Convergence after Step  16       (Hartree/Angstrom,Angstrom)
----------------------------------------------------------------------
current energy                               -3.24920220 Hartree
energy change                      -0.00004836     0.00014000    T
constrained gradient max            0.00154604     0.00010000    F
constrained gradient rms            0.00049869     0.00006667    F
gradient max                        0.00154592
gradient rms                        0.00049869
cart. step max                      0.01926450     0.01000000    F
cart. step rms                      0.00565371     0.00666667    T
 

--------
Geometry
--------
Formula: C5H5N3O
Atoms
  Index Symbol   x (angstrom)   y (angstrom)   z (angstrom)
      1      C     4.86198713    -0.22873346    -1.34996737
      2      N     3.45113493     0.12841570    -1.17952474
      3      C     3.05111278     1.03019555    -0.23107819
      4      O     3.82799775     1.64909276     0.50181452
      5      C     1.57357217     1.26110800    -0.11061175
      6      N     0.70145840     0.71386442    -0.87795532
      7      C    -0.07886084     0.04078365    -1.53500906
      8      C    -0.70701600     0.20869212    -2.75852585
      9      N    -1.29771326     0.19688871    -3.77209525
     10      H     5.21417160    -0.88075699    -0.53959168
     11      H     4.97976326    -0.74386147    -2.30717925
     12      H     5.46976419     0.68099091    -1.34677916
     13      H     2.75144154    -0.40660386    -1.68000451
     14      H     1.24390634     1.93468398     0.67733762

Total System Charge              0.00000

 *** GO1_GOStep17 ***

 Energy gradients wrt nuclear displacements
 ==========================================

     Atom      Cartesian (a.u./angstrom)
                 X         Y         Z
 ----------------------------------------
     1 C    -0.000003  0.000001 -0.000167
     2 N    -0.000188  0.000148  0.000056
     3 C    -0.000370 -0.000383 -0.000004
     4 O     0.000194  0.000131  0.000068
     5 C     0.000703 -0.000046 -0.000346
     6 N    -0.000451 -0.000536  0.000712
     7 C     0.000226  0.000458 -0.000623
     8 C    -0.000060  0.000305  0.000863
     9 N    -0.000252 -0.000379 -0.000000
    10 H     0.000039  0.000081 -0.000161
    11 H    -0.000033  0.000107 -0.000210
    12 H     0.000046  0.000105 -0.000187
    13 H     0.000064  0.000055 -0.000116
    14 H     0.000087 -0.000048  0.000115
 ----------------------------------------

 dE(predicted):    -0.78601E-05, dE(actual):    -0.14880E-04, Trust radius:    0.080000, all in a.u.
 
----------------------------------------------------------------------
Geometry Convergence after Step  17       (Hartree/Angstrom,Angstrom)
----------------------------------------------------------------------
current energy                               -3.24921708 Hartree
energy change                      -0.00001488     0.00014000    T
constrained gradient max            0.00077217     0.00010000    F
constrained gradient rms            0.00029012     0.00006667    F
gradient max                        0.00077302
gradient rms                        0.00029012
cart. step max                      0.00919535     0.01000000    T
cart. step rms                      0.00240236     0.00666667    T
 

--------
Geometry
--------
Formula: C5H5N3O
Atoms
  Index Symbol   x (angstrom)   y (angstrom)   z (angstrom)
      1      C     4.85984156    -0.22880579    -1.35162727
      2      N     3.44950846     0.12889919    -1.17914185
      3      C     3.05054409     1.03090780    -0.23061318
      4      O     3.82783387     1.65152041     0.50024026
      5      C     1.57249557     1.26126463    -0.10893520
      6      N     0.70117243     0.71255883    -0.87570289
      7      C    -0.07835168     0.03734407    -1.53216079
      8      C    -0.70156249     0.20730982    -2.75855298
      9      N    -1.28851791     0.20009808    -3.77419552
     10      H     5.21333253    -0.88081837    -0.54178613
     11      H     4.97592709    -0.74413319    -2.30893975
     12      H     5.46792067     0.68074846    -1.34972500
     13      H     2.74900025    -0.40820176    -1.67631694
     14      H     1.24357556     1.93606782     0.67828723

Total System Charge              0.00000

 *** GO1_GOStep18 ***

 Energy gradients wrt nuclear displacements
 ==========================================

     Atom      Cartesian (a.u./angstrom)
                 X         Y         Z
 ----------------------------------------
     1 C    -0.000176 -0.000053 -0.000178
     2 N    -0.000050  0.000362  0.000078
     3 C    -0.000129 -0.000575  0.000049
     4 O     0.000126  0.000135 -0.000034
     5 C     0.000155  0.000057 -0.000330
     6 N    -0.000026 -0.000368  0.000592
     7 C    -0.000043  0.000299 -0.000302
     8 C    -0.000007 -0.000009  0.000537
     9 N    -0.000220 -0.000134  0.000091
    10 H     0.000072  0.000072 -0.000175
    11 H    -0.000032  0.000107 -0.000206
    12 H     0.000068  0.000129 -0.000199
    13 H     0.000048  0.000020 -0.000109
    14 H     0.000215 -0.000041  0.000186
 ----------------------------------------

 dE(predicted):    -0.25434E-05, dE(actual):    -0.27914E-05, Trust radius:    0.080000, all in a.u.
 
----------------------------------------------------------------------
Geometry Convergence after Step  18       (Hartree/Angstrom,Angstrom)
----------------------------------------------------------------------
current energy                               -3.24921987 Hartree
energy change                      -0.00000279     0.00014000    T
constrained gradient max            0.00055743     0.00010000    F
constrained gradient rms            0.00019593     0.00006667    F
gradient max                        0.00055744
gradient rms                        0.00019593
cart. step max                      0.00717460     0.01000000    T
cart. step rms                      0.00236475     0.00666667    T
 

--------
Geometry
--------
Formula: C5H5N3O
Atoms
  Index Symbol   x (angstrom)   y (angstrom)   z (angstrom)
      1      C     4.85992890    -0.22865963    -1.35172971
      2      N     3.44938030     0.12728514    -1.17774216
      3      C     3.05038631     1.03194606    -0.23161989
      4      O     3.82758424     1.65621594     0.49608933
      5      C     1.57164550     1.25940619    -0.10825069
      6      N     0.70141621     0.71058611    -0.87606899
      7      C    -0.07791928     0.03469387    -1.53248360
      8      C    -0.70040651     0.20887366    -2.75912782
      9      N    -1.28740780     0.20727268    -3.77466110
     10      H     5.21607502    -0.87782488    -0.54074197
     11      H     4.97502410    -0.74668572    -2.30771310
     12      H     5.46648408     0.68186241    -1.35369431
     13      H     2.74873614    -0.41344389    -1.67081681
     14      H     1.24179278     1.93323205     0.67939080

Total System Charge              0.00000

 *** GO1_GOStep19 ***

 Energy gradients wrt nuclear displacements
 ==========================================

     Atom      Cartesian (a.u./angstrom)
                 X         Y         Z
 ----------------------------------------
     1 C    -0.000187 -0.000010 -0.000179
     2 N     0.000102  0.000210  0.000007
     3 C     0.000023 -0.000349 -0.000009
     4 O     0.000103  0.000047 -0.000048
     5 C    -0.000114  0.000119  0.000006
     6 N     0.000106 -0.000210  0.000267
     7 C    -0.000123  0.000122 -0.000015
     8 C    -0.000022 -0.000205  0.000284
     9 N    -0.000192  0.000060  0.000186
    10 H     0.000090  0.000057 -0.000199
    11 H    -0.000043  0.000090 -0.000186
    12 H     0.000044  0.000115 -0.000203
    13 H     0.000020  0.000019 -0.000083
    14 H     0.000195 -0.000065  0.000171
 ----------------------------------------
 
----------------------------------------------------------------------
Geometry Convergence after Step  19       (Hartree/Angstrom,Angstrom)
----------------------------------------------------------------------
current energy                               -3.24921966 Hartree
energy change                       0.00000021     0.00014000    T
constrained gradient max            0.00033035     0.00010000    F
constrained gradient rms            0.00010597     0.00006667    F
gradient max                        0.00033034
gradient rms                        0.00010597
cart. step max                      0.00293633     0.01000000    T
cart. step rms                      0.00112259     0.00666667    T
 

--------
Geometry
--------
Formula: C5H5N3O
Atoms
  Index Symbol   x (angstrom)   y (angstrom)   z (angstrom)
      1      C     4.86035818    -0.22866954    -1.35138930
      2      N     3.44955801     0.12632871    -1.17714091
      3      C     3.05049614     1.03269509    -0.23254736
      4      O     3.82760074     1.65881796     0.49361185
      5      C     1.57151327     1.25831796    -0.10819424
      6      N     0.70157365     0.71000187    -0.87670484
      7      C    -0.07755036     0.03391370    -1.53325203
      8      C    -0.70088371     0.21001956    -2.75933419
      9      N    -1.28862028     0.21020901    -3.77440731
     10      H     5.21727207    -0.87698782    -0.54005547
     11      H     4.97550923    -0.74737550    -2.30700732
     12      H     5.46608996     0.68233103    -1.35422578
     13      H     2.74891589    -0.41598930    -1.66848075
     14      H     1.24088721     1.93114729     0.67995766

Total System Charge              0.00000

 *** GO1_GOStep20 ***

 Energy gradients wrt nuclear displacements
 ==========================================

     Atom      Cartesian (a.u./angstrom)
                 X         Y         Z
 ----------------------------------------
     1 C    -0.000095  0.000050 -0.000156
     2 N     0.000072  0.000034 -0.000055
     3 C     0.000083 -0.000094 -0.000035
     4 O     0.000094 -0.000010 -0.000035
     5 C    -0.000064  0.000005  0.000142
     6 N     0.000018 -0.000086  0.000110
     7 C    -0.000045  0.000047  0.000116
     8 C    -0.000065 -0.000204  0.000209
     9 N    -0.000165  0.000094  0.000233
    10 H     0.000086  0.000052 -0.000206
    11 H    -0.000051  0.000079 -0.000181
    12 H     0.000012  0.000084 -0.000199
    13 H    -0.000003  0.000037 -0.000073
    14 H     0.000123 -0.000089  0.000132
 ----------------------------------------
 
----------------------------------------------------------------------
Geometry Convergence after Step  20       (Hartree/Angstrom,Angstrom)
----------------------------------------------------------------------
current energy                               -3.24921908 Hartree
energy change                       0.00000058     0.00014000    T
constrained gradient max            0.00018513     0.00010000    F
constrained gradient rms            0.00004965     0.00006667    T
gradient max                        0.00018546
gradient rms                        0.00004965
cart. step max                      0.00098992     0.01000000    T
cart. step rms                      0.00035431     0.00666667    T
 

--------
Geometry
--------
Formula: C5H5N3O
Atoms
  Index Symbol   x (angstrom)   y (angstrom)   z (angstrom)
      1      C     4.86045365    -0.22873614    -1.35130484
      2      N     3.44955588     0.12603617    -1.17697342
      3      C     3.05056756     1.03299078    -0.23285877
      4      O     3.82768377     1.65951694     0.49290654
      5      C     1.57159992     1.25824539    -0.10828288
      6      N     0.70158579     0.71017071    -0.87687962
      7      C    -0.07733921     0.03385039    -1.53343863
      8      C    -0.70106726     0.21027953    -2.75931736
      9      N    -1.28899333     0.21028672    -3.77427381
     10      H     5.21723543    -0.87768891    -0.54042118
     11      H     4.97584567    -0.74665373    -2.30732665
     12      H     5.46598645     0.68235836    -1.35323587
     13      H     2.74886096    -0.41671292    -1.66776256
     14      H     1.24074473     1.93081672     0.67999905

Total System Charge              0.00000

 *** GO1_GOStep21 ***

 Energy gradients wrt nuclear displacements
 ==========================================

     Atom      Cartesian (a.u./angstrom)
                 X         Y         Z
 ----------------------------------------
     1 C    -0.000017  0.000081 -0.000156
     2 N     0.000018 -0.000035 -0.000068
     3 C     0.000085  0.000024 -0.000017
     4 O     0.000072 -0.000052 -0.000043
     5 C     0.000035 -0.000081  0.000131
     6 N    -0.000044 -0.000009  0.000096
     7 C     0.000012 -0.000002  0.000150
     8 C    -0.000091 -0.000139  0.000196
     9 N    -0.000153  0.000067  0.000244
    10 H     0.000074  0.000052 -0.000204
    11 H    -0.000051  0.000077 -0.000185
    12 H    -0.000005  0.000067 -0.000196
    13 H    -0.000012  0.000044 -0.000064
    14 H     0.000079 -0.000095  0.000117
 ----------------------------------------
 
----------------------------------------------------------------------
Geometry Convergence after Step  21       (Hartree/Angstrom,Angstrom)
----------------------------------------------------------------------
current energy                               -3.24921901 Hartree
energy change                       0.00000007     0.00014000    T
constrained gradient max            0.00012093     0.00010000    F
constrained gradient rms            0.00003112     0.00006667    T
gradient max                        0.00012116
gradient rms                        0.00003112
cart. step max                      0.00222234     0.01000000    T
cart. step rms                      0.00063605     0.00666667    T
 

--------
Geometry
--------
Formula: C5H5N3O
Atoms
  Index Symbol   x (angstrom)   y (angstrom)   z (angstrom)
      1      C     4.86039202    -0.22891418    -1.35128953
      2      N     3.44947018     0.12597400    -1.17692507
      3      C     3.05063847     1.03340409    -0.23316066
      4      O     3.82780370     1.66032505     0.49220319
      5      C     1.57172048     1.25846761    -0.10840871
      6      N     0.70158504     0.71040290    -0.87685695
      7      C    -0.07711014     0.03370705    -1.53333362
      8      C    -0.70100508     0.21027490    -2.75917581
      9      N    -1.28891391     0.20967017    -3.77413658
     10      H     5.21655430    -0.87957988    -0.54150888
     11      H     4.97617678    -0.74493242    -2.30829398
     12      H     5.46598963     0.68209677    -1.35101353
     13      H     2.74865505    -0.41712954    -1.66715645
     14      H     1.24076349     1.93099348     0.67988657

Total System Charge              0.00000

 *** GO1_GOStep22 ***

 Energy gradients wrt nuclear displacements
 ==========================================

     Atom      Cartesian (a.u./angstrom)
                 X         Y         Z
 ----------------------------------------
     1 C     0.000065  0.000092 -0.000156
     2 N    -0.000047 -0.000069 -0.000078
     3 C     0.000054  0.000079  0.000008
     4 O     0.000070 -0.000060 -0.000044
     5 C     0.000136 -0.000156  0.000085
     6 N    -0.000090  0.000053  0.000107
     7 C     0.000056 -0.000070  0.000180
     8 C    -0.000108 -0.000034  0.000180
     9 N    -0.000148  0.000018  0.000249
    10 H     0.000061  0.000053 -0.000204
    11 H    -0.000053  0.000078 -0.000189
    12 H    -0.000023  0.000056 -0.000192
    13 H    -0.000018  0.000052 -0.000059
    14 H     0.000044 -0.000093  0.000114
 ----------------------------------------
 
----------------------------------------------------------------------
Geometry Convergence after Step  22       (Hartree/Angstrom,Angstrom)
----------------------------------------------------------------------
current energy                               -3.24921877 Hartree
energy change                       0.00000024     0.00014000    T
constrained gradient max            0.00010267     0.00010000    F
constrained gradient rms            0.00004318     0.00006667    T
gradient max                        0.00010263
gradient rms                        0.00004318
cart. step max                      0.00299222     0.01000000    T
cart. step rms                      0.00087276     0.00666667    T
 

--------
Geometry
--------
Formula: C5H5N3O
Atoms
  Index Symbol   x (angstrom)   y (angstrom)   z (angstrom)
      1      C     4.86026914    -0.22914098    -1.35132477
      2      N     3.44938895     0.12601412    -1.17689007
      3      C     3.05069505     1.03385227    -0.23344429
      4      O     3.82788531     1.66126313     0.49146778
      5      C     1.57181308     1.25887157    -0.10859939
      6      N     0.70159729     0.71054773    -0.87674646
      7      C    -0.07703567     0.03349977    -1.53299763
      8      C    -0.70086685     0.21011287    -2.75895410
      9      N    -1.28855920     0.20881681    -3.77403579
     10      H     5.21559579    -0.88222122    -0.54311963
     11      H     4.97652776    -0.74251464    -2.30969476
     12      H     5.46608363     0.68168771    -1.34802131
     13      H     2.74844417    -0.41759680    -1.66638847
     14      H     1.24088156     1.93156765     0.67957886

Total System Charge              0.00000

 *** GO1_GOStep23 ***

 Energy gradients wrt nuclear displacements
 ==========================================

     Atom      Cartesian (a.u./angstrom)
                 X         Y         Z
 ----------------------------------------
     1 C     0.000113  0.000082 -0.000164
     2 N    -0.000079 -0.000059 -0.000070
     3 C     0.000018  0.000069  0.000025
     4 O     0.000068 -0.000056 -0.000052
     5 C     0.000189 -0.000170  0.000047
     6 N    -0.000080  0.000083  0.000130
     7 C     0.000059 -0.000147  0.000197
     8 C    -0.000123  0.000075  0.000161
     9 N    -0.000147 -0.000032  0.000242
    10 H     0.000051  0.000055 -0.000205
    11 H    -0.000054  0.000081 -0.000189
    12 H    -0.000032  0.000055 -0.000187
    13 H    -0.000018  0.000052 -0.000055
    14 H     0.000033 -0.000088  0.000120
 ----------------------------------------
 
----------------------------------------------------------------------
Geometry Convergence after Step  23       (Hartree/Angstrom,Angstrom)
----------------------------------------------------------------------
current energy                               -3.24921826 Hartree
energy change                       0.00000051     0.00014000    T
constrained gradient max            0.00014087     0.00010000    F
constrained gradient rms            0.00005637     0.00006667    T
gradient max                        0.00014088
gradient rms                        0.00005637
cart. step max                      0.00468956     0.01000000    T
cart. step rms                      0.00136031     0.00666667    T
 

--------
Geometry
--------
Formula: C5H5N3O
Atoms
  Index Symbol   x (angstrom)   y (angstrom)   z (angstrom)
      1      C     4.86005576    -0.22949362    -1.35136930
      2      N     3.44933484     0.12631298    -1.17697336
      3      C     3.05078922     1.03452702    -0.23382399
      4      O     3.82796962     1.66257855     0.49056062
      5      C     1.57190696     1.25954754    -0.10891276
      6      N     0.70166936     0.71064650    -0.87659284
      7      C    -0.07706134     0.03318161    -1.53238064
      8      C    -0.70066016     0.20960647    -2.75858217
      9      N    -1.28805587     0.20747861    -3.77383027
     10      H     5.21395638    -0.88639825    -0.54562508
     11      H     4.97705349    -0.73876517    -2.31183859
     12      H     5.46643838     0.68090032    -1.34333175
     13      H     2.74821067    -0.41799797    -1.66546957
     14      H     1.24111270     1.93263542     0.67899970

Total System Charge              0.00000

 *** GO1_GOStep24 ***

 Energy gradients wrt nuclear displacements
 ==========================================

     Atom      Cartesian (a.u./angstrom)
                 X         Y         Z
 ----------------------------------------
     1 C     0.000115  0.000061 -0.000173
     2 N    -0.000082 -0.000014 -0.000052
     3 C    -0.000015 -0.000004  0.000018
     4 O     0.000081 -0.000025 -0.000048
     5 C     0.000181 -0.000133  0.000029
     6 N    -0.000028  0.000074  0.000138
     7 C     0.000024 -0.000221  0.000214
     8 C    -0.000122  0.000180  0.000138
     9 N    -0.000150 -0.000082  0.000232
    10 H     0.000049  0.000056 -0.000207
    11 H    -0.000057  0.000087 -0.000185
    12 H    -0.000032  0.000060 -0.000182
    13 H    -0.000013  0.000045 -0.000057
    14 H     0.000047 -0.000084  0.000133
 ----------------------------------------
 
----------------------------------------------------------------------
Geometry Convergence after Step  24       (Hartree/Angstrom,Angstrom)
----------------------------------------------------------------------
current energy                               -3.24921726 Hartree
energy change                       0.00000100     0.00014000    T
constrained gradient max            0.00019695     0.00010000    F
constrained gradient rms            0.00006191     0.00006667    T
gradient max                        0.00019724
gradient rms                        0.00006191
cart. step max                      0.00564114     0.01000000    T
cart. step rms                      0.00160773     0.00666667    T
 

--------
Geometry
--------
Formula: C5H5N3O
Atoms
  Index Symbol   x (angstrom)   y (angstrom)   z (angstrom)
      1      C     4.85985041    -0.22990848    -1.35136283
      2      N     3.44938431     0.12688397    -1.17723572
      3      C     3.05093672     1.03531805    -0.23424899
      4      O     3.82804802     1.66385462     0.48979568
      5      C     1.57200865     1.26039981    -0.10934927
      6      N     0.70179566     0.71077132    -0.87651674
      7      C    -0.07713497     0.03289097    -1.53169535
      8      C    -0.70059851     0.20871713    -2.75810474
      9      N    -1.28783808     0.20583743    -3.77343987
     10      H     5.21188407    -0.89136533    -0.54849850
     11      H     4.97781003    -0.73437346    -2.31425756
     12      H     5.46710344     0.67982189    -1.33769061
     13      H     2.74807174    -0.41808651    -1.66476605
     14      H     1.24139850     1.93399860     0.67820056

Total System Charge              0.00000

 *** GO1_GOStep25 ***

 Energy gradients wrt nuclear displacements
 ==========================================

     Atom      Cartesian (a.u./angstrom)
                 X         Y         Z
 ----------------------------------------
     1 C     0.000067  0.000045 -0.000185
     2 N    -0.000045  0.000042 -0.000030
     3 C    -0.000015 -0.000084 -0.000005
     4 O     0.000088  0.000001 -0.000045
     5 C     0.000110 -0.000065  0.000045
     6 N     0.000039  0.000037  0.000136
     7 C    -0.000028 -0.000253  0.000215
     8 C    -0.000116  0.000224  0.000123
     9 N    -0.000155 -0.000105  0.000224
    10 H     0.000056  0.000052 -0.000206
    11 H    -0.000052  0.000091 -0.000178
    12 H    -0.000021  0.000069 -0.000179
    13 H    -0.000007  0.000033 -0.000059
    14 H     0.000077 -0.000085  0.000144
 ----------------------------------------

 dE(predicted):    -0.10086E-06, dE(actual):     0.12159E-05, Trust radius:    0.020000, all in a.u.
 
----------------------------------------------------------------------
Geometry Convergence after Step  25       (Hartree/Angstrom,Angstrom)
----------------------------------------------------------------------
current energy                               -3.24921605 Hartree
energy change                       0.00000122     0.00014000    T
constrained gradient max            0.00024239     0.00010000    F
constrained gradient rms            0.00006109     0.00006667    T
gradient max                        0.00024276
gradient rms                        0.00006109
cart. step max                      0.00741701     0.01000000    T
cart. step rms                      0.00212724     0.00666667    T
 

--------
Geometry
--------
Formula: C5H5N3O
Atoms
  Index Symbol   x (angstrom)   y (angstrom)   z (angstrom)
      1      C     4.85952098    -0.23046016    -1.35136039
      2      N     3.44943864     0.12774467    -1.17761996
      3      C     3.05117898     1.03639160    -0.23472494
      4      O     3.82821542     1.66531699     0.48905551
      5      C     1.57217408     1.26158825    -0.10988976
      6      N     0.70201170     0.71106262    -0.87645624
      7      C    -0.07704817     0.03262569    -1.53091044
      8      C    -0.70047248     0.20722213    -2.75750478
      9      N    -1.28767398     0.20353296    -3.77286134
     10      H     5.20904365    -0.89792350    -0.55233368
     11      H     4.97873035    -0.72858515    -2.31741913
     12      H     5.46801304     0.67828362    -1.33027360
     13      H     2.74783287    -0.41791021    -1.66401051
     14      H     1.24175493     1.93587048     0.67713928

Total System Charge              0.00000

 *** GO1_GOStep26 ***

 Energy gradients wrt nuclear displacements
 ==========================================

     Atom      Cartesian (a.u./angstrom)
                 X         Y         Z
 ----------------------------------------
     1 C    -0.000013  0.000030 -0.000172
     2 N     0.000005  0.000092 -0.000024
     3 C     0.000022 -0.000145 -0.000033
     4 O     0.000092  0.000024 -0.000036
     5 C    -0.000002 -0.000000  0.000069
     6 N     0.000096 -0.000021  0.000123
     7 C    -0.000067 -0.000224  0.000202
     8 C    -0.000101  0.000203  0.000128
     9 N    -0.000158 -0.000099  0.000216
    10 H     0.000067  0.000044 -0.000209
    11 H    -0.000047  0.000091 -0.000177
    12 H    -0.000007  0.000074 -0.000173
    13 H    -0.000002  0.000020 -0.000061
    14 H     0.000114 -0.000087  0.000147
 ----------------------------------------

 dE(predicted):    -0.13592E-06, dE(actual):     0.16451E-05, Trust radius:    0.020000, all in a.u.
 
----------------------------------------------------------------------
Geometry Convergence after Step  26       (Hartree/Angstrom,Angstrom)
----------------------------------------------------------------------
current energy                               -3.24921440 Hartree
energy change                       0.00000165     0.00014000    T
constrained gradient max            0.00022084     0.00010000    F
constrained gradient rms            0.00005865     0.00006667    T
gradient max                        0.00022119
gradient rms                        0.00005865
cart. step max                      0.00182768     0.01000000    T
cart. step rms                      0.00057925     0.00666667    T
 

--------
Geometry
--------
Formula: C5H5N3O
Atoms
  Index Symbol   x (angstrom)   y (angstrom)   z (angstrom)
      1      C     4.85942318    -0.23056943    -1.35141339
      2      N     3.44942751     0.12770835    -1.17745583
      3      C     3.05125926     1.03666971    -0.23478913
      4      O     3.82829481     1.66590243     0.48869649
      5      C     1.57219875     1.26183502    -0.10995817
      6      N     0.70209520     0.71113946    -0.87646853
      7      C    -0.07692962     0.03272660    -1.53091727
      8      C    -0.70040030     0.20673946    -2.75748559
      9      N    -1.28768358     0.20324448    -3.77279983
     10      H     5.20861801    -0.89959963    -0.55352949
     11      H     4.97888219    -0.72693007    -2.31836420
     12      H     5.46805096     0.67803635    -1.32844593
     13      H     2.74771778    -0.41850507    -1.66307940
     14      H     1.24176587     1.93636234     0.67684027

Total System Charge              0.00000

 *** GO1_GOStep27 ***

 Energy gradients wrt nuclear displacements
 ==========================================

     Atom      Cartesian (a.u./angstrom)
                 X         Y         Z
 ----------------------------------------
     1 C    -0.000057  0.000041 -0.000168
     2 N     0.000035  0.000077 -0.000032
     3 C     0.000069 -0.000119 -0.000032
     4 O     0.000080  0.000004 -0.000040
     5 C    -0.000066  0.000004  0.000077
     6 N     0.000097 -0.000055  0.000128
     7 C    -0.000054 -0.000139  0.000176
     8 C    -0.000099  0.000106  0.000154
     9 N    -0.000156 -0.000056  0.000213
    10 H     0.000072  0.000038 -0.000207
    11 H    -0.000044  0.000090 -0.000183
    12 H     0.000004  0.000080 -0.000170
    13 H    -0.000002  0.000014 -0.000052
    14 H     0.000120 -0.000087  0.000135
 ----------------------------------------
 
----------------------------------------------------------------------
Geometry Convergence after Step  27       (Hartree/Angstrom,Angstrom)
----------------------------------------------------------------------
current energy                               -3.24921397 Hartree
energy change                       0.00000043     0.00014000    T
constrained gradient max            0.00012482     0.00010000    F
constrained gradient rms            0.00004337     0.00006667    T
gradient max                        0.00012502
gradient rms                        0.00004337
cart. step max                      0.00108668     0.01000000    T
cart. step rms                      0.00037749     0.00666667    T
 

--------
Geometry
--------
Formula: C5H5N3O
Atoms
  Index Symbol   x (angstrom)   y (angstrom)   z (angstrom)
      1      C     4.85949535    -0.23048302    -1.35140093
      2      N     3.44943356     0.12739920    -1.17720782
      3      C     3.05128117     1.03661135    -0.23473003
      4      O     3.82834876     1.66599235     0.48857080
      5      C     1.57220244     1.26155847    -0.10980268
      6      N     0.70214447     0.71114736    -0.87660987
      7      C    -0.07673237     0.03299974    -1.53140220
      8      C    -0.70046167     0.20676752    -2.75774451
      9      N    -1.28810910     0.20392246    -3.77285472
     10      H     5.20926928    -0.89865115    -0.55304075
     11      H     4.97875304    -0.72768908    -2.31794862
     12      H     5.46779770     0.67836221    -1.32953261
     13      H     2.74772433    -0.41905697    -1.66255012
     14      H     1.24157305     1.93587955     0.67708405

Total System Charge              0.00000

 *** GO1_GOStep28 ***

 Energy gradients wrt nuclear displacements
 ==========================================

     Atom      Cartesian (a.u./angstrom)
                 X         Y         Z
 ----------------------------------------
     1 C    -0.000056  0.000065 -0.000167
     2 N     0.000037  0.000027 -0.000053
     3 C     0.000095 -0.000041 -0.000022
     4 O     0.000071 -0.000021 -0.000040
     5 C    -0.000045 -0.000032  0.000092
     6 N     0.000044 -0.000066  0.000117
     7 C    -0.000026 -0.000038  0.000145
     8 C    -0.000087 -0.000023  0.000186
     9 N    -0.000153  0.000002  0.000224
    10 H     0.000074  0.000033 -0.000201
    11 H    -0.000042  0.000088 -0.000189
    12 H    -0.000003  0.000077 -0.000175
    13 H    -0.000009  0.000018 -0.000043
    14 H     0.000099 -0.000088  0.000125
 ----------------------------------------
 
---------------------------------------------------------
Geometry Convergence after Step  28       ** CONVERGED **
---------------------------------------------------------
current energy                               -3.24921420 Hartree
energy change                      -0.00000024     0.00014000    T
constrained gradient max            0.00009067     0.00010000    T
constrained gradient rms            0.00002145     0.00006667    T
gradient max                        0.00009067
gradient rms                        0.00002145
cart. step max                      0.00130916     0.01000000    T
cart. step rms                      0.00034472     0.00666667    T
 
Geometry optimization converged

Optimized geometry:

--------
Geometry
--------
Formula: C5H5N3O
Atoms
  Index Symbol   x (angstrom)   y (angstrom)   z (angstrom)
      1      C     4.85949535    -0.23048302    -1.35140093
      2      N     3.44943356     0.12739920    -1.17720782
      3      C     3.05128117     1.03661135    -0.23473003
      4      O     3.82834876     1.66599235     0.48857080
      5      C     1.57220244     1.26155847    -0.10980268
      6      N     0.70214447     0.71114736    -0.87660987
      7      C    -0.07673237     0.03299974    -1.53140220
      8      C    -0.70046167     0.20676752    -2.75774451
      9      N    -1.28810910     0.20392246    -3.77285472
     10      H     5.20926928    -0.89865115    -0.55304075
     11      H     4.97875304    -0.72768908    -2.31794862
     12      H     5.46779770     0.67836221    -1.32953261
     13      H     2.74772433    -0.41905697    -1.66255012
     14      H     1.24157305     1.93587955     0.67708405

Total System Charge              0.00000

Performing a single point calculation on the final geometry ...

 *** adf ***



 ===========================
 A T T A C H E D   F I L E S
 ===========================
  
 Restart/tmp/amstmp_c4_fragA_opt_kid0.352185395/GO1_GOStep28.rkf*** GO1_GOStep28 ***



 ===============================
[...]
                                   -3.66%     2 P:y             4.589  0.00     4 C
                                    3.26%     2 P:z             4.589  0.00     5 C
                                   -3.12%     3 S              14.073  0.00     8 N
                                    3.00%     1 P:z            -7.062  1.00     8 N
                                   -2.89%     2 P:y             7.649  0.00     7 N
                                    2.88%     2 P:z             7.649  0.00     7 N
                                    2.83%     1 P:x            -5.239  0.67     3 C
                                   -2.53%     2 P:z             4.589  0.00     2 C
                                   -2.25%     2 P:y             4.589  0.00     3 C
                                   -2.13%     2 P:z             4.589  0.00     1 C
                                   -2.00%     2 P:x             4.589  0.00     2 C
                                   -1.95%     2 P:x             4.589  0.00     5 C
                                   -1.86%     3 S              10.158  0.00     4 C
                                   -1.82%     2 S             -13.620  2.00     5 C
                                    1.68%     2 P:x             7.649  0.00     7 N
                                    1.63%     1 P:y            -7.062  1.00     8 N
                                   -1.62%     3 S              10.158  0.00     5 C
                                   -1.59%     1 P:y            -7.062  1.00     7 N
                                    1.53%     1 P:y            -5.239  0.67     1 C
                                    1.19%     2 S             -13.620  2.00     4 C
                                   -1.18%     3 S              10.158  0.00     2 C
                                    1.09%     1 P:x            -5.239  0.67     4 C
       1.497  0.00    42 A         17.83%     2 P:x             4.589  0.00     4 C
                                   17.12%     2 P:x             4.589  0.00     3 C
                                   15.71%     1 S              -6.532  1.00    12 H
                                   11.48%     2 S               2.394  0.00    12 H
                                  -10.20%     2 P:y             4.589  0.00     1 C
                                    8.95%     2 P:z             4.589  0.00     4 C
                                    8.08%     1 P:x            -5.239  0.67     1 C
                                    7.89%     2 P:x             7.649  0.00     7 N
                                    7.35%     2 S               2.394  0.00    10 H
                                    7.08%     1 S              -6.532  1.00    10 H
                                   -6.97%     3 S              14.073  0.00     8 N
                                   -6.03%     3 S              10.158  0.00     4 C
                                   -4.36%     2 P:y             4.589  0.00     2 C
                                   -4.24%     3 S              14.073  0.00     6 N
                                    4.17%     1 P:x            -5.239  0.67     4 C
                                    3.80%     2 P:x             4.589  0.00     5 C
                                    3.75%     2 P:x             4.589  0.00     1 C
                                    3.02%     2 S             -13.620  2.00     4 C
                                    2.94%     2 P:z             4.589  0.00     2 C
                                    2.92%     2 P:x             4.589  0.00     2 C
                                    2.89%     2 P:z             4.589  0.00     5 C
                                   -2.68%     1 S              -6.532  1.00    13 H
                                   -2.32%     3 S              10.158  0.00     3 C
                                    2.29%     1 P:z            -5.239  0.67     5 C
                                    2.21%     1 P:x            -5.239  0.67     3 C
                                    2.00%     2 S             -18.450  2.00     6 N
                                    2.00%     1 P:x            -5.239  0.67     2 C
                                    1.99%     1 P:z            -7.062  1.00     7 N
                                    1.94%     2 P:z             4.589  0.00     3 C
                                    1.82%     1 P:x            -7.062  1.00     7 N
                                   -1.78%     2 P:y             7.649  0.00     7 N
                                   -1.63%     2 S             -13.620  2.00     2 C
                                   -1.57%     3 S              10.158  0.00     2 C
                                    1.47%     2 P:y             4.589  0.00     3 C
                                   -1.40%     2 S             -13.620  2.00     5 C
                                   -1.36%     3 S              10.158  0.00     5 C
                                   -1.20%     1 P:z            -5.239  0.67     3 C
                                    1.06%     1 P:y            -5.239  0.67     2 C
       1.530  0.00    43 A         18.26%     1 S              -6.532  1.00    11 H
                                   17.54%     1 S              -6.532  1.00    12 H
                                   11.91%     2 P:z             4.589  0.00     4 C
                                   11.60%     1 P:x            -5.239  0.67     4 C
                                   10.11%     2 S               2.394  0.00    12 H
                                    9.00%     1 P:z            -5.239  0.67     5 C
                                   -8.84%     2 P:y             4.589  0.00     1 C
                                   -6.63%     2 P:z             4.589  0.00     1 C
                                    6.61%     2 P:z             4.589  0.00     3 C
                                    4.57%     2 S               2.394  0.00    14 H
                                    4.39%     1 P:x            -5.239  0.67     5 C
                                    4.09%     1 P:x            -7.062  1.00     8 N
                                    3.98%     2 S               2.394  0.00    11 H
                                    3.66%     2 P:z             4.589  0.00     5 C
                                   -3.32%     3 S              14.073  0.00     8 N
                                   -3.26%     2 P:z             4.589  0.00     2 C
                                    3.25%     2 S               2.394  0.00    13 H
                                   -3.24%     2 P:x             4.589  0.00     4 C
                                    2.80%     2 P:z             7.649  0.00     7 N
                                    2.72%     1 P:y            -5.239  0.67     5 C
                                    2.71%     1 P:z            -5.239  0.67     1 C
                                    2.59%     1 P:z            -7.062  1.00     7 N
                                   -2.57%     2 P:x             4.589  0.00     3 C
                                    2.06%     2 P:y             4.589  0.00     2 C
                                    1.94%     1 P:x            -5.239  0.67     1 C
                                    1.91%     1 P:y            -5.239  0.67     1 C
                                    1.85%     3 S              40.869  0.00    11 H
                                    1.63%     1 P:y            -7.062  1.00     8 N
                                    1.55%     1 P:y            -7.062  1.00     7 N
                                   -1.54%     3 S              10.158  0.00     3 C
                                   -1.53%     2 P:x             4.589  0.00     2 C
                                    1.51%     1 S              -6.532  1.00    13 H
                                   -1.50%     2 P:x             7.649  0.00     8 N
                                   -1.14%     2 S             -13.620  2.00     5 C
                                   -1.09%     1 P:x            -5.239  0.67     3 C
                                   -1.05%     2 P:z             7.649  0.00     6 N
                                   -1.01%     1 P:z            -5.239  0.67     2 C

 Energy gradients wrt nuclear displacements
 ==========================================

     Atom      Cartesian (a.u./angstrom)
                 X         Y         Z
 ----------------------------------------
     1 C    -0.000056  0.000065 -0.000167
     2 N     0.000037  0.000027 -0.000053
     3 C     0.000095 -0.000041 -0.000022
     4 O     0.000071 -0.000021 -0.000040
     5 C    -0.000045 -0.000032  0.000091
     6 N     0.000045 -0.000066  0.000118
     7 C    -0.000026 -0.000038  0.000145
     8 C    -0.000087 -0.000023  0.000187
     9 N    -0.000153  0.000002  0.000223
    10 H     0.000074  0.000033 -0.000201
    11 H    -0.000042  0.000088 -0.000189
    12 H    -0.000004  0.000077 -0.000175
    13 H    -0.000008  0.000018 -0.000043
    14 H     0.000099 -0.000089  0.000125
 ----------------------------------------



 =======================================================================
 Electrostatic potential at the Nuclei due to electrons and other nuclei
 =======================================================================
  
         Atom                  Potential
         ----                  ---------
     1)   C                  14.73505551
     2)   N                  18.36060157
     3)   C                  14.66410221
     4)   O                  22.41431230
     5)   C                  14.70303897
     6)   N                  18.30018694
     7)   C                  14.68764054
     8)   C                  14.72925950
     9)   N                  18.40799365
    10)   H                   1.09393697
    11)   H                   1.08377175
    12)   H                   1.09195488
    13)   H                   0.99001654
    14)   H                   1.04283691
 Mulliken charges used for AMS results%charges...


    =====================
     CALCULATION RESULTS
    =====================

Energy (hartree)            -3.24921420

Gradients (hartree/bohr)
  Index   Atom            d/dx            d/dy            d/dz
      1      C   -0.0000298732    0.0000344486   -0.0000882535
      2      N    0.0000197570    0.0000140289   -0.0000279397
      3      C    0.0000504513   -0.0000217842   -0.0000116415
      4      O    0.0000374559   -0.0000113350   -0.0000213146
      5      C   -0.0000239154   -0.0000169172    0.0000483647
      6      N    0.0000239354   -0.0000346779    0.0000624033
      7      C   -0.0000139299   -0.0000200768    0.0000767611
      8      C   -0.0000459866   -0.0000121014    0.0000986930
      9      N   -0.0000810378    0.0000008922    0.0001181431
     10      H    0.0000391624    0.0000177105   -0.0001062283
     11      H   -0.0000223614    0.0000463437   -0.0001000133
     12      H   -0.0000018561    0.0000406809   -0.0000923602
     13      H   -0.0000044322    0.0000097033   -0.0000228704
     14      H    0.0000526306   -0.0000469154    0.0000662563


--------------
Atomic charges
--------------
  Index   Atom    Charge
      1      C    0.7790
      2      N   -0.1238
      3      C    0.5609
      4      O   -0.5575
      5      C    0.2206
      6      N   -0.0922
      7      C    0.0172
      8      C    0.1363
      9      N   -0.2302
     10      H   -0.1750
     11      H   -0.2167
     12      H   -0.1672
     13      H   -0.0417
     14      H   -0.1097


Dipole moment vector    (Debye):     1.51893023   -1.44358589    0.51371442
              magnitude (Debye):     2.15754300


-----------------------
Molecular orbitals info
-----------------------
n orbitals:              289
n spin:                    1

Note: only printing virtual orbitals with
      energy smaller than HOMO + 100. eV

HOMO (eV):              -6.1977
LUMO (eV):              -3.7879
HOMO-LUMO gap (eV):      2.4098

   Index   Energy (eV)    Occupation
     179       93.5344         0.000       
     178       93.3669         0.000       
     177       93.0629         0.000       
     176       92.1533         0.000       
     175       90.8266         0.000       
     174       90.3835         0.000       
     173       89.9087         0.000       
     172       89.2786         0.000       
     171       85.7587         0.000       
     170       85.2476         0.000       
     169       84.6951         0.000       
     168       83.2882         0.000       
     167       81.9797         0.000       
     166       81.5589         0.000       
     165       80.4328         0.000       
     164       79.9763         0.000       
     163       77.7420         0.000       
     162       77.2738         0.000       
     161       76.7590         0.000       
     160       76.3020         0.000       
     159       75.7596         0.000       
     158       75.5006         0.000       
     157       75.1608         0.000       
     156       74.1303         0.000       
     155       73.9276         0.000       
     154       73.2224         0.000       
     153       72.5295         0.000       
     152       70.4138         0.000       
     151       69.4408         0.000       
     150       67.1280         0.000       
     149       66.6859         0.000       
     148       65.2555         0.000       
     147       64.7790         0.000       
     146       64.0341         0.000       
     145       62.5429         0.000       
     144       61.8630         0.000       
     143       61.0864         0.000       
     142       60.0916         0.000       
     141       59.3010         0.000       
     140       58.3460         0.000       
     139       57.3728         0.000       
     138       56.8378         0.000       
     137       55.3912         0.000       
     136       54.9261         0.000       
     135       54.1633         0.000       
     134       53.7863         0.000       
     133       53.1734         0.000       
     132       51.5009         0.000       
     131       50.7995         0.000       
     130       50.4719         0.000       
     129       49.3849         0.000       
     128       48.2518         0.000       
     127       47.3485         0.000       
     126       46.9664         0.000       
     125       46.3919         0.000       
     124       45.8906         0.000       
     123       44.6510         0.000       
     122       43.5388         0.000       
     121       43.3088         0.000       
     120       42.7350         0.000       
     119       41.7352         0.000       
     118       40.9368         0.000       
     117       39.4766         0.000       
     116       38.8664         0.000       
     115       38.4243         0.000       
     114       37.4662         0.000       
     113       36.9234         0.000       
     112       36.0014         0.000       
     111       35.9047         0.000       
     110       35.4328         0.000       
     109       34.8800         0.000       
     108       34.3487         0.000       
     107       34.1411         0.000       
     106       32.9207         0.000       
     105       32.5896         0.000       
     104       31.7003         0.000       
     103       31.4209         0.000       
     102       30.7988         0.000       
     101       30.3503         0.000       
     100       29.8502         0.000       
      99       28.7221         0.000       
      98       28.5648         0.000       
      97       27.9497         0.000       
      96       27.8553         0.000       
      95       27.0714         0.000       
      94       26.6251         0.000       
      93       25.9274         0.000       
      92       25.7356         0.000       
      91       25.6154         0.000       
      90       24.7920         0.000       
      89       24.4057         0.000       
      88       23.5263         0.000       
      87       23.2658         0.000       
      86       22.3483         0.000       
      85       21.6820         0.000       
      84       21.1631         0.000       
      83       20.1286         0.000       
      82       19.6422         0.000       
      81       18.4913         0.000       
      80       18.0748         0.000       
      79       17.2050         0.000       
      78       16.4431         0.000       
      77       15.8947         0.000       
      76       15.2991         0.000       
      75       14.3825         0.000       
      74       13.2209         0.000       
      73       13.0375         0.000       
      72       12.6007         0.000       
      71       12.3969         0.000       
      70       12.0141         0.000       
      69       11.4371         0.000       
      68       11.0409         0.000       
      67       10.4560         0.000       
      66       10.2532         0.000       
      65        9.6925         0.000       
      64        9.2761         0.000       
      63        8.7796         0.000       
      62        8.5180         0.000       
      61        8.3475         0.000       
      60        7.7567         0.000       
      59        7.5147         0.000       
      58        6.8942         0.000       
      57        6.6960         0.000       
      56        6.6183         0.000       
      55        6.1616         0.000       
      54        5.9073         0.000       
      53        5.3997         0.000       
      52        5.0156         0.000       
      51        4.6971         0.000       
      50        4.2668         0.000       
      49        4.1965         0.000       
      48        3.7722         0.000       
      47        3.5310         0.000       
      46        2.9456         0.000       
      45        2.7143         0.000       
      44        2.4750         0.000       
      43        1.5303         0.000       
      42        1.4971         0.000       
      41        1.2634         0.000       
      40        1.0515         0.000       
      39        0.4558         0.000       
      38        0.2662         0.000       
      37       -0.0551         0.000       
      36       -0.3137         0.000       
      35       -0.9572         0.000       
      34       -3.0746         0.000       
      33       -3.7879         0.000 < LUMO
      32       -6.1977         2.000 < HOMO
      31       -6.4838         2.000       
      30       -6.7233         2.000       
      29       -8.7242         2.000       
      28       -8.9377         2.000       
      27       -9.3700         2.000       
      26       -9.8605         2.000       
      25      -10.0571         2.000       
      24      -10.2484         2.000       
      23      -10.8703         2.000       
      22      -11.2964         2.000       
      21      -11.6748         2.000       
      20      -11.8626         2.000       
      19      -13.5049         2.000       
      18      -14.7557         2.000       
      17      -15.4291         2.000       
      16      -17.0402         2.000       
      15      -18.1631         2.000       
      14      -20.6931         2.000       
      13      -23.0736         2.000       
      12      -23.4442         2.000       
      11      -25.6155         2.000       
      10      -26.3078         2.000       
       9     -271.3423         2.000       
       8     -271.9200         2.000       
       7     -272.3028         2.000       
       6     -272.8536         2.000       
       5     -273.3752         2.000       
       4     -382.3747         2.000       
       3     -382.9615         2.000       
       2     -384.8269         2.000       
       1     -511.1110         2.000       

AMS application finished. Exiting.
NORMAL TERMINATION
     Total cpu time:    1065.16
  Total system time:       7.69
 Total elapsed time:    1078.49
NORMAL TERMINATION
